
     Program PWSCF v.5.0.2 (svn rev. 9656) starts on 29Oct2013 at 13:24: 8 

     This program is part of the open-source Quantum ESPRESSO suite
     for quantum simulation of materials; please cite
         "P. Giannozzi et al., J. Phys.:Condens. Matter 21 395502 (2009);
          URL http://www.quantum-espresso.org", 
     in publications or presentations arising from this work. More details at
     http://www.quantum-espresso.org/quote.php

     Parallel version (MPI), running on    32 processors
     K-points division:     npool     =       4
     R & G space division:  proc/nbgrp/npool/nimage =       8

     Current dimensions of program PWSCF are:
     Max number of different atomic species (ntypx) = 10
     Max number of k-points (npk) =  40000
     Max angular momentum in pseudopotentials (lmaxx) =  3
     Reading input from pw.in

     Subspace diagonalization in iterative solution of the eigenvalue problem:
     scalapack distributed-memory algorithm (size of sub-group:  2*  2 procs)

 
     Parallelization info
     --------------------
     sticks:   dense  smooth     PW     G-vecs:    dense   smooth      PW
     Min         134     134     39                 5777     5777     897
     Max         135     135     40                 5782     5782     902
     Sum        1075    1075    313                46245    46245    7187
 


     bravais-lattice index     =            0
     lattice parameter (alat)  =       5.7406  a.u.
     unit-cell volume          =     261.5157 (a.u.)^3
     number of atoms/cell      =            4
     number of atomic types    =            2
     number of electrons       =        16.00
     number of Kohn-Sham states=            8
     kinetic-energy cutoff     =     120.0000  Ry
     charge density cutoff     =     480.0000  Ry
     convergence threshold     =      1.0E-10
     mixing beta               =       0.7000
     number of iterations used =            8  plain     mixing
     Exchange-correlation      =  SLA  PZ   NOGX NOGC ( 1 1 0 0 0)
     EXX-fraction              =        0.00

     celldm(1)=   5.740591  celldm(2)=   0.000000  celldm(3)=   0.000000
     celldm(4)=   0.000000  celldm(5)=   0.000000  celldm(6)=   0.000000

     crystal axes: (cart. coord. in units of alat)
               a(1) = (   1.000000   0.000000   0.000000 )  
               a(2) = (  -0.500000   0.866025   0.000000 )  
               a(3) = (   0.000000   0.000000   1.596236 )  

     reciprocal axes: (cart. coord. in units 2 pi/alat)
               b(1) = (  1.000000  0.577350  0.000000 )  
               b(2) = (  0.000000  1.154701  0.000000 )  
               b(3) = (  0.000000  0.000000  0.626474 )  


     PseudoPot. # 1 for Al read from file:
     /home/schmerle/soft/share/espresso/pseudo/espresso/Al.pz-vbc.UPF
     MD5 check sum: 614279c88ff8d45c90147292d03ed420
     Pseudo is Norm-conserving, Zval =  3.0
     Generated by new atomic code, or converted to UPF format
     Using radial grid of  171 points,  2 beta functions with: 
                l(1) =   0
                l(2) =   1

     PseudoPot. # 2 for N  read from file:
     /home/schmerle/soft/share/espresso/pseudo/espresso/N.pz-vbc.UPF
     MD5 check sum: f7a51f6f78412844d17f6e69b370b417
     Pseudo is Norm-conserving, Zval =  5.0
     Generated by new atomic code, or converted to UPF format
     Using radial grid of  161 points,  1 beta functions with: 
                l(1) =   0

     atomic species   valence    mass     pseudopotential
        Al             3.00    26.98154     Al( 1.00)
        N              5.00    14.00674     N ( 1.00)

     12 Sym. Ops. (no inversion) found ( 6 have fractional translation)



   Cartesian axes

     site n.     atom                  positions (alat units)
         1           Al  tau(   1) = (  -0.0000000   0.5773503   0.0039777  )
         2           Al  tau(   2) = (   0.5000000   0.2886751   0.8020959  )
         3           N   tau(   3) = (  -0.0000000   0.5773503   0.6153619  )
         4           N   tau(   4) = (   0.5000000   0.2886751   1.4134801  )

     number of k points=    21
                       cart. coord. in units 2pi/alat
        k(    1) = (   0.0000000   0.0000000   0.0000000), wk =   0.0138889
        k(    2) = (   0.0000000   0.0000000   0.1566184), wk =   0.0277778
        k(    3) = (   0.0000000   0.0000000  -0.3132368), wk =   0.0138889
        k(    4) = (   0.0000000   0.1924501   0.0000000), wk =   0.0833333
        k(    5) = (   0.0000000   0.1924501   0.1566184), wk =   0.1666667
        k(    6) = (   0.0000000   0.1924501  -0.3132368), wk =   0.0833333
        k(    7) = (   0.0000000   0.3849002   0.0000000), wk =   0.0833333
        k(    8) = (   0.0000000   0.3849002   0.1566184), wk =   0.1666667
        k(    9) = (   0.0000000   0.3849002  -0.3132368), wk =   0.0833333
        k(   10) = (   0.0000000  -0.5773503   0.0000000), wk =   0.0416667
        k(   11) = (   0.0000000  -0.5773503   0.1566184), wk =   0.0833333
        k(   12) = (   0.0000000  -0.5773503  -0.3132368), wk =   0.0416667
        k(   13) = (   0.1666667   0.2886751   0.0000000), wk =   0.0833333
        k(   14) = (   0.1666667   0.2886751   0.1566184), wk =   0.1666667
        k(   15) = (   0.1666667   0.2886751  -0.3132368), wk =   0.0833333
        k(   16) = (   0.1666667   0.4811252   0.0000000), wk =   0.1666667
        k(   17) = (   0.1666667   0.4811252   0.1566184), wk =   0.3333333
        k(   18) = (   0.1666667   0.4811252  -0.3132368), wk =   0.1666667
        k(   19) = (   0.3333333   0.5773503   0.0000000), wk =   0.0277778
        k(   20) = (   0.3333333   0.5773503   0.1566184), wk =   0.0555556
        k(   21) = (   0.3333333   0.5773503  -0.3132368), wk =   0.0277778

     Dense  grid:    46245 G-vectors     FFT dimensions: (  45,  45,  64)

     Largest allocated arrays     est. size (Mb)     dimensions
        Kohn-Sham Wavefunctions         0.09 Mb     (    734,    8)
        NL pseudopotentials             0.11 Mb     (    734,   10)
        Each V/rho on FFT grid          0.25 Mb     (  16200)
        Each G-vector array             0.04 Mb     (   5779)
        G-vector shells                 0.02 Mb     (   2812)
     Largest temporary arrays     est. size (Mb)     dimensions
        Auxiliary wavefunctions         0.36 Mb     (    734,   32)
        Each subspace H/S matrix        0.00 Mb     (  16,  16)
        Each <psi_i|beta_j> matrix      0.00 Mb     (     10,    8)
        Arrays for rho mixing           1.98 Mb     (  16200,   8)

     Initial potential from superposition of free atoms
     Check: negative starting charge=   -0.000374

     starting charge   15.99587, renormalised to   16.00000

     negative rho (up, down):  0.374E-03 0.000E+00
     Starting wfc are   16 randomized atomic wfcs

     total cpu time spent up to now is        5.3 secs

     Self-consistent Calculation

     iteration #  1     ecut=   120.00 Ry     beta=0.70
     Davidson diagonalization with overlap
     ethr =  1.00E-02,  avg # of iterations =  2.0

     negative rho (up, down):  0.902E-04 0.000E+00

     total cpu time spent up to now is        5.6 secs

     total energy              =     -48.16027191 Ry
     Harris-Foulkes estimate   =     -49.08482644 Ry
     estimated scf accuracy    <       1.32258574 Ry

     iteration #  2     ecut=   120.00 Ry     beta=0.70
     Davidson diagonalization with overlap
     ethr =  8.27E-03,  avg # of iterations =  2.0

     negative rho (up, down):  0.351E-04 0.000E+00

     total cpu time spent up to now is        5.8 secs

     total energy              =     -48.55458192 Ry
     Harris-Foulkes estimate   =     -49.01507995 Ry
     estimated scf accuracy    <       0.92506894 Ry

     iteration #  3     ecut=   120.00 Ry     beta=0.70
     Davidson diagonalization with overlap
     ethr =  5.78E-03,  avg # of iterations =  2.0

     negative rho (up, down):  0.466E-05 0.000E+00

     total cpu time spent up to now is        6.0 secs

     total energy              =     -48.72525240 Ry
     Harris-Foulkes estimate   =     -48.72530671 Ry
     estimated scf accuracy    <       0.00383101 Ry

     iteration #  4     ecut=   120.00 Ry     beta=0.70
     Davidson diagonalization with overlap
     ethr =  2.39E-05,  avg # of iterations =  2.4

     total cpu time spent up to now is        6.3 secs

     total energy              =     -48.72625838 Ry
     Harris-Foulkes estimate   =     -48.72650407 Ry
     estimated scf accuracy    <       0.00057320 Ry

     iteration #  5     ecut=   120.00 Ry     beta=0.70
     Davidson diagonalization with overlap
     ethr =  3.58E-06,  avg # of iterations =  2.0

     total cpu time spent up to now is        6.5 secs

     total energy              =     -48.72628065 Ry
     Harris-Foulkes estimate   =     -48.72631174 Ry
     estimated scf accuracy    <       0.00005025 Ry

     iteration #  6     ecut=   120.00 Ry     beta=0.70
     Davidson diagonalization with overlap
     ethr =  3.14E-07,  avg # of iterations =  3.0

     total cpu time spent up to now is        6.8 secs

     total energy              =     -48.72630359 Ry
     Harris-Foulkes estimate   =     -48.72631465 Ry
     estimated scf accuracy    <       0.00002343 Ry

     iteration #  7     ecut=   120.00 Ry     beta=0.70
     Davidson diagonalization with overlap
     ethr =  1.46E-07,  avg # of iterations =  2.0

     total cpu time spent up to now is        7.0 secs

     total energy              =     -48.72630808 Ry
     Harris-Foulkes estimate   =     -48.72630808 Ry
     estimated scf accuracy    <       0.00000001 Ry

     iteration #  8     ecut=   120.00 Ry     beta=0.70
     Davidson diagonalization with overlap
     ethr =  8.90E-11,  avg # of iterations =  3.2

     total cpu time spent up to now is        7.3 secs

     total energy              =     -48.72630810 Ry
     Harris-Foulkes estimate   =     -48.72630811 Ry
     estimated scf accuracy    <       0.00000001 Ry

     iteration #  9     ecut=   120.00 Ry     beta=0.70
     Davidson diagonalization with overlap
     ethr =  8.82E-11,  avg # of iterations =  2.0

     total cpu time spent up to now is        7.5 secs

     total energy              =     -48.72630810 Ry
     Harris-Foulkes estimate   =     -48.72630810 Ry
     estimated scf accuracy    <          8.8E-10 Ry

     iteration # 10     ecut=   120.00 Ry     beta=0.70
     Davidson diagonalization with overlap
     ethr =  5.51E-12,  avg # of iterations =  1.0

     total cpu time spent up to now is        7.7 secs

     total energy              =     -48.72630810 Ry
     Harris-Foulkes estimate   =     -48.72630810 Ry
     estimated scf accuracy    <          5.0E-10 Ry

     iteration # 11     ecut=   120.00 Ry     beta=0.70
     Davidson diagonalization with overlap
     ethr =  3.13E-12,  avg # of iterations =  2.0

     total cpu time spent up to now is        7.9 secs

     End of self-consistent calculation

          k = 0.0000 0.0000 0.0000 (  5761 PWs)   bands (ev):

    -7.8781  -5.3835   1.2810   6.6634   6.6634   7.3116   7.3116   7.5970

          k = 0.0000 0.0000 0.1566 (  5774 PWs)   bands (ev):

    -7.6102  -5.9053   2.1703   6.3970   6.7532   6.7532   7.2114   7.2114

          k = 0.0000 0.0000-0.3132 (  5792 PWs)   bands (ev):

    -6.8681  -6.8681   4.1803   4.1803   6.9770   6.9770   6.9770   6.9770

          k = 0.0000 0.1925 0.0000 (  5777 PWs)   bands (ev):

    -7.4875  -5.1676   1.7216   5.2010   6.0533   6.2584   7.2496   7.4221

          k = 0.0000 0.1925 0.1566 (  5789 PWs)   bands (ev):

    -7.2311  -5.6355   2.4439   5.2654   5.6502   6.3874   7.0165   7.0857

          k = 0.0000 0.1925-0.3132 (  5790 PWs)   bands (ev):

    -6.5276  -6.5276   3.9828   3.9828   6.1872   6.1872   6.7193   6.7193

          k = 0.0000 0.3849 0.0000 (  5782 PWs)   bands (ev):

    -6.4664  -4.7812   2.8776   2.9337   4.1594   5.6607   6.6914   7.0051

          k = 0.0000 0.3849 0.1566 (  5795 PWs)   bands (ev):

    -6.2553  -5.0708   2.3442   3.3921   4.4536   5.8263   6.7689   6.7730

          k = 0.0000 0.3849-0.3132 (  5808 PWs)   bands (ev):

    -5.7018  -5.7018   2.6274   2.6274   5.9708   5.9708   6.2635   6.2635

          k = 0.0000-0.5774 0.0000 (  5784 PWs)   bands (ev):

    -5.6140  -4.8022   1.8685   3.2580   4.0925   5.4133   5.7220   6.8690

          k = 0.0000-0.5774 0.1566 (  5810 PWs)   bands (ev):

    -5.4794  -4.8957   1.5907   2.5030   4.9187   5.5898   6.3489   6.6086

          k = 0.0000-0.5774-0.3132 (  5780 PWs)   bands (ev):

    -5.1677  -5.1677   1.6817   1.6817   6.0589   6.0589   6.1830   6.1830

          k = 0.1667 0.2887 0.0000 (  5780 PWs)   bands (ev):

    -6.7748  -4.8574   2.5536   4.0588   4.0718   5.8495   6.6242   6.9865

          k = 0.1667 0.2887 0.1566 (  5812 PWs)   bands (ev):

    -6.5466  -5.2094   2.6887   3.8716   4.7471   5.5721   6.3737   7.0381

          k = 0.1667 0.2887-0.3132 (  5830 PWs)   bands (ev):

    -5.9365  -5.9365   3.2252   3.2252   5.6403   5.6403   6.3326   6.3326

          k = 0.1667 0.4811 0.0000 (  5810 PWs)   bands (ev):

    -5.7087  -4.7200   2.3800   3.5165   3.9316   4.7008   5.9861   6.0815

          k = 0.1667 0.4811 0.1566 (  5810 PWs)   bands (ev):

    -5.5583  -4.8515   2.1227   2.8320   4.3294   5.2578   5.6652   6.6531

          k = 0.1667 0.4811-0.3132 (  5812 PWs)   bands (ev):

    -5.1964  -5.1964   2.1740   2.1740   4.8084   4.8084   6.5930   6.5930

          k = 0.3333 0.5774 0.0000 (  5844 PWs)   bands (ev):

    -4.9921  -4.9921   2.4620   3.7045   3.7045   4.9718   5.1090   5.1090

          k = 0.3333 0.5774 0.1566 (  5832 PWs)   bands (ev):

    -4.9592  -4.9592   2.7268   2.9696   2.9696   4.4404   6.0902   6.0902

          k = 0.3333 0.5774-0.3132 (  5814 PWs)   bands (ev):

    -4.9255  -4.9255   2.5299   2.5299   3.4670   3.4670   6.8135   6.8135

!    total energy              =     -48.72630810 Ry
     Harris-Foulkes estimate   =     -48.72630810 Ry
     estimated scf accuracy    <          1.2E-11 Ry

     The total energy is the sum of the following terms:

     one-electron contribution =      -1.31101984 Ry
     hartree contribution      =      11.04760992 Ry
     xc contribution           =     -13.86428694 Ry
     ewald contribution        =     -44.59861124 Ry

     convergence has been achieved in  11 iterations

     Forces acting on atoms (Ry/au):

     atom    1 type  1   force =     0.00000000    0.00000000   -0.00001086
     atom    2 type  1   force =     0.00000000   -0.00000000   -0.00001086
     atom    3 type  2   force =     0.00000000   -0.00000000    0.00001086
     atom    4 type  2   force =     0.00000000    0.00000000    0.00001086

     Total force =     0.000022     Total SCF correction =     0.000000


     entering subroutine stress ...

          total   stress  (Ry/bohr**3)                   (kbar)     P=    0.16
   0.00000116   0.00000000   0.00000000          0.17      0.00      0.00
   0.00000000   0.00000116  -0.00000000          0.00      0.17     -0.00
   0.00000000   0.00000000   0.00000097          0.00      0.00      0.14


     Writing output data file j600ph_lda_ncpp_run0.save
 
     init_run     :      0.36s CPU      3.13s WALL (       1 calls)
     electrons    :      1.96s CPU      2.60s WALL (       1 calls)
     forces       :      0.02s CPU      0.02s WALL (       1 calls)
     stress       :      0.04s CPU      0.05s WALL (       1 calls)

     Called by init_run:
     wfcinit      :      0.09s CPU      1.49s WALL (       1 calls)
     potinit      :      0.01s CPU      0.03s WALL (       1 calls)

     Called by electrons:
     c_bands      :      1.53s CPU      1.89s WALL (      11 calls)
     sum_band     :      0.25s CPU      0.36s WALL (      11 calls)
     v_of_rho     :      0.02s CPU      0.03s WALL (      12 calls)
     mix_rho      :      0.04s CPU      0.03s WALL (      11 calls)

     Called by c_bands:
     init_us_2    :      0.01s CPU      0.03s WALL (     150 calls)
     cegterg      :      1.49s CPU      1.80s WALL (      66 calls)

     Called by *egterg:
     h_psi        :      1.13s CPU      2.02s WALL (     212 calls)
     g_psi        :      0.03s CPU      0.01s WALL (     140 calls)
     cdiaghg      :      0.26s CPU      1.09s WALL (     206 calls)

     Called by h_psi:
     add_vuspsi   :      0.00s CPU      0.02s WALL (     212 calls)

     General routines
     calbec       :      0.02s CPU      0.50s WALL (     224 calls)
     fft          :      0.03s CPU      0.86s WALL (      52 calls)
     fftw         :      1.21s CPU      1.57s WALL (    3764 calls)
     davcio       :      0.01s CPU      0.08s WALL (     222 calls)
 
     Parallel routines
     fft_scatter  :      0.85s CPU      0.67s WALL (    3816 calls)
 
     PWSCF        :     2.67s CPU         8.59s WALL

 
   This run was terminated on:  13:24:16  29Oct2013            

=------------------------------------------------------------------------------=
   JOB DONE.
=------------------------------------------------------------------------------=
