ANIMSTEPS  12
CRYSTAL
PRIMVEC
    3.037790186    0.000000000    0.000000000
   -1.518895096    2.630803473    0.000000000
    0.000000000    0.000000000    4.849030851
PRIMCOORD  1
      4   1
   Al     0.00000   1.75387   0.01208   0.03895  -0.03122  -0.00290
   Al     1.51890   0.87693   2.43660   0.03895  -0.03122  -0.00290
   N      0.00000   1.75387   1.86934   0.03895  -0.03122  -0.00290
   N      1.51890   0.87693   4.29386   0.03895  -0.03122  -0.00290
PRIMCOORD  2
      4   1
   Al     0.00000   1.75387   0.01208  -0.03116  -0.03906   0.00186
   Al     1.51890   0.87693   2.43660  -0.03116  -0.03906   0.00186
   N      0.00000   1.75387   1.86934  -0.03116  -0.03906   0.00186
   N      1.51890   0.87693   4.29386  -0.03116  -0.03906   0.00186
PRIMCOORD  3
      4   1
   Al     0.00000   1.75387   0.01208   0.00343  -0.00036   0.04988
   Al     1.51890   0.87693   2.43660   0.00343  -0.00036   0.04988
   N      0.00000   1.75387   1.86934   0.00343  -0.00036   0.04988
   N      1.51890   0.87693   4.29386   0.00343  -0.00036   0.04988
PRIMCOORD  4
      4   1
   Al     0.00000   1.75387   0.01208   0.02589  -0.04674   0.00000
   Al     1.51890   0.87693   2.43660  -0.02589   0.04674   0.00000
   N      0.00000   1.75387   1.86934  -0.02244   0.04051   0.00000
   N      1.51890   0.87693   4.29386   0.02244  -0.04051   0.00000
PRIMCOORD  5
      4   1
   Al     0.00000   1.75387   0.01208   0.04674   0.02589   0.00000
   Al     1.51890   0.87693   2.43660  -0.04674  -0.02589   0.00000
   N      0.00000   1.75387   1.86934  -0.04051  -0.02244   0.00000
   N      1.51890   0.87693   4.29386   0.04051   0.02244   0.00000
PRIMCOORD  6
      4   1
   Al     0.00000   1.75387   0.01208   0.00000   0.00000   0.07029
   Al     1.51890   0.87693   2.43660   0.00000   0.00000  -0.07029
   N      0.00000   1.75387   1.86934   0.00000   0.00000  -0.00766
   N      1.51890   0.87693   4.29386   0.00000   0.00000   0.00766
PRIMCOORD  7
      4   1
   Al     0.00000   1.75387   0.01208   0.00000   0.00000  -0.03258
   Al     1.51890   0.87693   2.43660   0.00000   0.00000  -0.03258
   N      0.00000   1.75387   1.86934   0.00000   0.00000   0.06276
   N      1.51890   0.87693   4.29386   0.00000   0.00000   0.06276
PRIMCOORD  8
      4   1
   Al     0.00000   1.75387   0.01208  -0.02867  -0.00445   0.00000
   Al     1.51890   0.87693   2.43660   0.02867   0.00445   0.00000
   N      0.00000   1.75387   1.86934  -0.06372  -0.00990   0.00000
   N      1.51890   0.87693   4.29386   0.06372   0.00990   0.00000
PRIMCOORD  9
      4   1
   Al     0.00000   1.75387   0.01208   0.00445  -0.02867   0.00000
   Al     1.51890   0.87693   2.43660  -0.00445   0.02867   0.00000
   N      0.00000   1.75387   1.86934   0.00990  -0.06372   0.00000
   N      1.51890   0.87693   4.29386  -0.00990   0.06372   0.00000
PRIMCOORD 10
      4   1
   Al     0.00000   1.75387   0.01208   0.00000   0.03258   0.00000
   Al     1.51890   0.87693   2.43660   0.00000   0.03258   0.00000
   N      0.00000   1.75387   1.86934   0.00000  -0.06276   0.00000
   N      1.51890   0.87693   4.29386   0.00000  -0.06276   0.00000
PRIMCOORD 11
      4   1
   Al     0.00000   1.75387   0.01208   0.00000   0.00000  -0.00399
   Al     1.51890   0.87693   2.43660   0.00000   0.00000   0.00399
   N      0.00000   1.75387   1.86934   0.00000   0.00000  -0.07060
   N      1.51890   0.87693   4.29386   0.00000   0.00000   0.07060
PRIMCOORD 12
      4   1
   Al     0.00000   1.75387   0.01208  -0.03258   0.00000   0.00000
   Al     1.51890   0.87693   2.43660  -0.03258   0.00000   0.00000
   N      0.00000   1.75387   1.86934   0.06276   0.00000   0.00000
   N      1.51890   0.87693   4.29386   0.06276   0.00000   0.00000
