
     Program PWSCF v.5.0.2 (svn rev. 9656) starts on 29Oct2013 at 11:45:58 

     This program is part of the open-source Quantum ESPRESSO suite
     for quantum simulation of materials; please cite
         "P. Giannozzi et al., J. Phys.:Condens. Matter 21 395502 (2009);
          URL http://www.quantum-espresso.org", 
     in publications or presentations arising from this work. More details at
     http://www.quantum-espresso.org/quote.php

     Parallel version (MPI), running on     8 processors
     R & G space division:  proc/nbgrp/npool/nimage =       8

     Current dimensions of program PWSCF are:
     Max number of different atomic species (ntypx) = 10
     Max number of k-points (npk) =  40000
     Max angular momentum in pseudopotentials (lmaxx) =  3
     Reading input from pw.in

     Subspace diagonalization in iterative solution of the eigenvalue problem:
     scalapack distributed-memory algorithm (size of sub-group:  2*  2 procs)

 
     Parallelization info
     --------------------
     sticks:   dense  smooth     PW     G-vecs:    dense   smooth      PW
     Min         115     115     35                 2301     2301     383
     Max         116     116     36                 2304     2304     384
     Sum         925     925    283                18421    18421    3071
 


     bravais-lattice index     =            0
     lattice parameter (alat)  =       5.2723  a.u.
     unit-cell volume          =     103.6305 (a.u.)^3
     number of atoms/cell      =            2
     number of atomic types    =            2
     number of electrons       =         8.00
     number of Kohn-Sham states=            4
     kinetic-energy cutoff     =     120.0000  Ry
     charge density cutoff     =     480.0000  Ry
     convergence threshold     =      1.0E-10
     mixing beta               =       0.7000
     number of iterations used =            8  plain     mixing
     Exchange-correlation      =  SLA  PZ   NOGX NOGC ( 1 1 0 0 0)
     EXX-fraction              =        0.00

     celldm(1)=   5.272310  celldm(2)=   0.000000  celldm(3)=   0.000000
     celldm(4)=   0.000000  celldm(5)=   0.000000  celldm(6)=   0.000000

     crystal axes: (cart. coord. in units of alat)
               a(1) = (  -0.707107   0.000000   0.707107 )  
               a(2) = (   0.000000   0.707107   0.707107 )  
               a(3) = (  -0.707107   0.707107   0.000000 )  

     reciprocal axes: (cart. coord. in units 2 pi/alat)
               b(1) = ( -0.707107 -0.707107  0.707107 )  
               b(2) = (  0.707107  0.707107  0.707107 )  
               b(3) = ( -0.707107  0.707107 -0.707107 )  


     PseudoPot. # 1 for Al read from file:
     /home/schmerler/soft/share/espresso/pseudo/espresso/Al.pz-vbc.UPF
     MD5 check sum: 614279c88ff8d45c90147292d03ed420
     Pseudo is Norm-conserving, Zval =  3.0
     Generated by new atomic code, or converted to UPF format
     Using radial grid of  171 points,  2 beta functions with: 
                l(1) =   0
                l(2) =   1

     PseudoPot. # 2 for N  read from file:
     /home/schmerler/soft/share/espresso/pseudo/espresso/N.pz-vbc.UPF
     MD5 check sum: f7a51f6f78412844d17f6e69b370b417
     Pseudo is Norm-conserving, Zval =  5.0
     Generated by new atomic code, or converted to UPF format
     Using radial grid of  161 points,  1 beta functions with: 
                l(1) =   0

     atomic species   valence    mass     pseudopotential
        Al             3.00    26.98154     Al( 1.00)
        N              5.00    14.00674     N ( 1.00)

     48 Sym. Ops., with inversion, found



   Cartesian axes

     site n.     atom                  positions (alat units)
         1           Al  tau(   1) = (   0.0000000   0.0000000   0.0000000  )
         2           N   tau(   2) = (  -0.7071068   0.7071068   0.7071068  )

     number of k points=    29
                       cart. coord. in units 2pi/alat
        k(    1) = (   0.0000000   0.0000000   0.0000000), wk =   0.0039062
        k(    2) = (  -0.0883883   0.0883883  -0.0883883), wk =   0.0312500
        k(    3) = (  -0.1767767   0.1767767  -0.1767767), wk =   0.0312500
        k(    4) = (  -0.2651650   0.2651650  -0.2651650), wk =   0.0312500
        k(    5) = (   0.3535534  -0.3535534   0.3535534), wk =   0.0156250
        k(    6) = (   0.0000000   0.1767767   0.0000000), wk =   0.0234375
        k(    7) = (  -0.0883883   0.2651650  -0.0883883), wk =   0.0937500
        k(    8) = (  -0.1767767   0.3535534  -0.1767767), wk =   0.0937500
        k(    9) = (   0.4419417  -0.2651650   0.4419417), wk =   0.0937500
        k(   10) = (   0.3535534  -0.1767767   0.3535534), wk =   0.0937500
        k(   11) = (   0.2651650  -0.0883883   0.2651650), wk =   0.0937500
        k(   12) = (   0.1767767   0.0000000   0.1767767), wk =   0.0468750
        k(   13) = (   0.0000000   0.3535534   0.0000000), wk =   0.0234375
        k(   14) = (  -0.0883883   0.4419417  -0.0883883), wk =   0.0937500
        k(   15) = (   0.5303301  -0.1767767   0.5303301), wk =   0.0937500
        k(   16) = (   0.4419417  -0.0883883   0.4419417), wk =   0.0937500
        k(   17) = (   0.3535534   0.0000000   0.3535534), wk =   0.0468750
        k(   18) = (   0.0000000   0.5303301   0.0000000), wk =   0.0234375
        k(   19) = (   0.6187184  -0.0883883   0.6187184), wk =   0.0937500
        k(   20) = (   0.5303301   0.0000000   0.5303301), wk =   0.0468750
        k(   21) = (   0.0000000  -0.7071068   0.0000000), wk =   0.0117188
        k(   22) = (  -0.1767767   0.3535534   0.0000000), wk =   0.0937500
        k(   23) = (   0.4419417  -0.2651650   0.6187184), wk =   0.1875000
        k(   24) = (   0.3535534  -0.1767767   0.5303301), wk =   0.0937500
        k(   25) = (   0.5303301  -0.1767767   0.7071068), wk =   0.0937500
        k(   26) = (   0.4419417  -0.0883883   0.6187184), wk =   0.1875000
        k(   27) = (   0.3535534   0.0000000   0.5303301), wk =   0.0937500
        k(   28) = (  -0.1767767  -0.7071068   0.0000000), wk =   0.0468750
        k(   29) = (  -0.3535534  -0.7071068   0.0000000), wk =   0.0234375

     Dense  grid:    18421 G-vectors     FFT dimensions: (  40,  40,  40)

     Largest allocated arrays     est. size (Mb)     dimensions
        Kohn-Sham Wavefunctions         0.02 Mb     (    284,    4)
        NL pseudopotentials             0.02 Mb     (    284,    5)
        Each V/rho on FFT grid          0.12 Mb     (   8000)
        Each G-vector array             0.02 Mb     (   2304)
        G-vector shells                 0.00 Mb     (    224)
     Largest temporary arrays     est. size (Mb)     dimensions
        Auxiliary wavefunctions         0.07 Mb     (    284,   16)
        Each subspace H/S matrix        0.00 Mb     (   8,   8)
        Each <psi_i|beta_j> matrix      0.00 Mb     (      5,    4)
        Arrays for rho mixing           0.98 Mb     (   8000,   8)

     Initial potential from superposition of free atoms

     starting charge    7.99794, renormalised to    8.00000

     negative rho (up, down):  0.344E-04 0.000E+00
     Starting wfc are    8 randomized atomic wfcs

     total cpu time spent up to now is        0.4 secs

     Self-consistent Calculation

     iteration #  1     ecut=   120.00 Ry     beta=0.70
     Davidson diagonalization with overlap
     ethr =  1.00E-02,  avg # of iterations =  2.0

     negative rho (up, down):  0.877E-05 0.000E+00

     total cpu time spent up to now is        0.8 secs

     total energy              =     -24.16470516 Ry
     Harris-Foulkes estimate   =     -24.46956233 Ry
     estimated scf accuracy    <       0.44441520 Ry

     iteration #  2     ecut=   120.00 Ry     beta=0.70
     Davidson diagonalization with overlap
     ethr =  5.56E-03,  avg # of iterations =  2.0

     negative rho (up, down):  0.351E-05 0.000E+00

     total cpu time spent up to now is        1.1 secs

     total energy              =     -24.30292958 Ry
     Harris-Foulkes estimate   =     -24.42807846 Ry
     estimated scf accuracy    <       0.24502201 Ry

     iteration #  3     ecut=   120.00 Ry     beta=0.70
     Davidson diagonalization with overlap
     ethr =  3.06E-03,  avg # of iterations =  2.0

     negative rho (up, down):  0.925E-06 0.000E+00

     total cpu time spent up to now is        1.4 secs

     total energy              =     -24.34817720 Ry
     Harris-Foulkes estimate   =     -24.34813571 Ry
     estimated scf accuracy    <       0.00122386 Ry

     iteration #  4     ecut=   120.00 Ry     beta=0.70
     Davidson diagonalization with overlap
     ethr =  1.53E-05,  avg # of iterations =  2.2

     total cpu time spent up to now is        1.8 secs

     total energy              =     -24.34844497 Ry
     Harris-Foulkes estimate   =     -24.34850932 Ry
     estimated scf accuracy    <       0.00016327 Ry

     iteration #  5     ecut=   120.00 Ry     beta=0.70
     Davidson diagonalization with overlap
     ethr =  2.04E-06,  avg # of iterations =  1.0

     total cpu time spent up to now is        2.0 secs

     total energy              =     -24.34844256 Ry
     Harris-Foulkes estimate   =     -24.34845658 Ry
     estimated scf accuracy    <       0.00002757 Ry

     iteration #  6     ecut=   120.00 Ry     beta=0.70
     Davidson diagonalization with overlap
     ethr =  3.45E-07,  avg # of iterations =  2.0

     total cpu time spent up to now is        2.4 secs

     total energy              =     -24.34845232 Ry
     Harris-Foulkes estimate   =     -24.34845231 Ry
     estimated scf accuracy    <       0.00000127 Ry

     iteration #  7     ecut=   120.00 Ry     beta=0.70
     Davidson diagonalization with overlap
     ethr =  1.59E-08,  avg # of iterations =  1.0

     total cpu time spent up to now is        2.6 secs

     total energy              =     -24.34845196 Ry
     Harris-Foulkes estimate   =     -24.34845236 Ry
     estimated scf accuracy    <       0.00000110 Ry

     iteration #  8     ecut=   120.00 Ry     beta=0.70
     Davidson diagonalization with overlap
     ethr =  1.37E-08,  avg # of iterations =  1.0

     total cpu time spent up to now is        2.9 secs

     total energy              =     -24.34845193 Ry
     Harris-Foulkes estimate   =     -24.34845203 Ry
     estimated scf accuracy    <       0.00000020 Ry

     iteration #  9     ecut=   120.00 Ry     beta=0.70
     Davidson diagonalization with overlap
     ethr =  2.48E-09,  avg # of iterations =  2.0

     total cpu time spent up to now is        3.2 secs

     total energy              =     -24.34845199 Ry
     Harris-Foulkes estimate   =     -24.34845199 Ry
     estimated scf accuracy    <          2.4E-09 Ry

     iteration # 10     ecut=   120.00 Ry     beta=0.70
     Davidson diagonalization with overlap
     ethr =  3.06E-11,  avg # of iterations =  3.0

     total cpu time spent up to now is        3.6 secs

     total energy              =     -24.34845199 Ry
     Harris-Foulkes estimate   =     -24.34845199 Ry
     estimated scf accuracy    <          5.5E-09 Ry

     iteration # 11     ecut=   120.00 Ry     beta=0.70
     Davidson diagonalization with overlap
     ethr =  3.06E-11,  avg # of iterations =  2.0

     total cpu time spent up to now is        4.0 secs

     End of self-consistent calculation

          k = 0.0000 0.0000 0.0000 (  2277 PWs)   bands (ev):

    -6.1487  11.9257  11.9257  11.9257

          k =-0.0884 0.0884-0.0884 (  2298 PWs)   bands (ev):

    -5.7971  10.4316  11.7066  11.7066

          k =-0.1768 0.1768-0.1768 (  2289 PWs)   bands (ev):

    -4.7904   7.4568  11.2327  11.2327

          k =-0.2652 0.2652-0.2652 (  2307 PWs)   bands (ev):

    -3.3576   4.5521  10.8172  10.8172

          k = 0.3536-0.3536 0.3536 (  2332 PWs)   bands (ev):

    -2.4427   3.1109  10.6584  10.6584

          k = 0.0000 0.1768 0.0000 (  2285 PWs)   bands (ev):

    -5.6816  10.5841  11.3285  11.3285

          k =-0.0884 0.2652-0.0884 (  2294 PWs)   bands (ev):

    -4.8975   8.3981  10.7892  10.8489

          k =-0.1768 0.3536-0.1768 (  2305 PWs)   bands (ev):

    -3.5942   5.6093  10.1376  10.4093

          k = 0.4419-0.2652 0.4419 (  2310 PWs)   bands (ev):

    -2.3697   3.6042   9.5661  10.3518

          k = 0.3536-0.1768 0.3536 (  2296 PWs)   bands (ev):

    -2.6876   4.0934   9.3689  10.6374

          k = 0.2652-0.0884 0.2652 (  2302 PWs)   bands (ev):

    -4.0666   6.5321   9.6512  11.1517

          k = 0.1768 0.0000 0.1768 (  2285 PWs)   bands (ev):

    -5.2277   9.0742  10.5624  11.6228

          k = 0.0000 0.3536 0.0000 (  2293 PWs)   bands (ev):

    -4.3658   8.0090  10.1838  10.1838

          k =-0.0884 0.4419-0.0884 (  2311 PWs)   bands (ev):

    -3.3006   6.3214   9.1808   9.7681

          k = 0.5303-0.1768 0.5303 (  2313 PWs)   bands (ev):

    -2.1019   4.7063   7.8256   9.7109

          k = 0.4419-0.0884 0.4419 (  2307 PWs)   bands (ev):

    -1.8613   4.5180   7.0280  10.0339

          k = 0.3536 0.0000 0.3536 (  2305 PWs)   bands (ev):

    -2.8980   5.7446   7.4781  10.6166

          k = 0.0000 0.5303 0.0000 (  2297 PWs)   bands (ev):

    -2.5464   5.4590   9.2891   9.2891

          k = 0.6187-0.0884 0.6187 (  2299 PWs)   bands (ev):

    -1.6665   4.6379   8.0356   9.1692

          k = 0.5303 0.0000 0.5303 (  2303 PWs)   bands (ev):

    -1.3542   4.9958   6.1355   9.4496

          k = 0.0000-0.7071 0.0000 (  2272 PWs)   bands (ev):

    -1.4093   4.1082   8.9664   8.9664

          k =-0.1768 0.3536 0.0000 (  2305 PWs)   bands (ev):

    -3.9627   7.0755   9.1672  10.6025

          k = 0.4419-0.2652 0.6187 (  2301 PWs)   bands (ev):

    -2.6754   5.1606   8.1964  10.0289

          k = 0.3536-0.1768 0.5303 (  2310 PWs)   bands (ev):

    -1.9055   4.0530   7.9647   9.7518

          k = 0.5303-0.1768 0.7071 (  2297 PWs)   bands (ev):

    -2.2765   5.3869   8.1141   9.0659

          k = 0.4419-0.0884 0.6187 (  2298 PWs)   bands (ev):

    -1.4720   4.9959   6.6688   8.7764

          k = 0.3536 0.0000 0.5303 (  2298 PWs)   bands (ev):

    -1.7029   5.3120   6.2721   9.2503

          k =-0.1768-0.7071 0.0000 (  2288 PWs)   bands (ev):

    -1.3044   4.5548   7.7391   8.3395

          k =-0.3536-0.7071 0.0000 (  2268 PWs)   bands (ev):

    -1.1938   5.8513   5.8513   7.7950

!    total energy              =     -24.34845199 Ry
     Harris-Foulkes estimate   =     -24.34845199 Ry
     estimated scf accuracy    <          9.1E-11 Ry

     The total energy is the sum of the following terms:

     one-electron contribution =       3.63142839 Ry
     hartree contribution      =       4.36914239 Ry
     xc contribution           =      -7.05758541 Ry
     ewald contribution        =     -25.29143735 Ry

     convergence has been achieved in  11 iterations

     Forces acting on atoms (Ry/au):

     atom    1 type  1   force =     0.00000000    0.00000000    0.00000000
     atom    2 type  2   force =     0.00000000    0.00000000    0.00000000

     Total force =     0.000000     Total SCF correction =     0.000000


     entering subroutine stress ...

          total   stress  (Ry/bohr**3)                   (kbar)     P=    0.18
   0.00000125   0.00000000   0.00000000          0.18      0.00      0.00
   0.00000000   0.00000125   0.00000000          0.00      0.18      0.00
   0.00000000   0.00000000   0.00000125          0.00      0.00      0.18


     Writing output data file j600ph_lda_ncpp_run0.save
 
     init_run     :      0.21s CPU      0.22s WALL (       1 calls)
     electrons    :      3.46s CPU      3.60s WALL (       1 calls)
     forces       :      0.01s CPU      0.01s WALL (       1 calls)
     stress       :      0.04s CPU      0.04s WALL (       1 calls)

     Called by init_run:
     wfcinit      :      0.18s CPU      0.18s WALL (       1 calls)
     potinit      :      0.00s CPU      0.00s WALL (       1 calls)

     Called by electrons:
     c_bands      :      2.92s CPU      2.96s WALL (      11 calls)
     sum_band     :      0.45s CPU      0.45s WALL (      11 calls)
     v_of_rho     :      0.01s CPU      0.02s WALL (      12 calls)
     mix_rho      :      0.01s CPU      0.01s WALL (      11 calls)

     Called by c_bands:
     init_us_2    :      0.06s CPU      0.05s WALL (     725 calls)
     cegterg      :      2.88s CPU      2.90s WALL (     319 calls)

     Called by *egterg:
     h_psi        :      2.37s CPU      2.38s WALL (     933 calls)
     g_psi        :      0.02s CPU      0.02s WALL (     585 calls)
     cdiaghg      :      0.45s CPU      0.47s WALL (     904 calls)

     Called by h_psi:
     add_vuspsi   :      0.02s CPU      0.02s WALL (     933 calls)

     General routines
     calbec       :      0.05s CPU      0.04s WALL (     991 calls)
     fft          :      0.02s CPU      0.03s WALL (      52 calls)
     fftw         :      2.55s CPU      2.58s WALL (    8818 calls)
     davcio       :      0.00s CPU      0.03s WALL (    1073 calls)
 
     Parallel routines
     fft_scatter  :      0.48s CPU      0.53s WALL (    8870 calls)
 
     PWSCF        :     4.00s CPU         4.21s WALL

 
   This run was terminated on:  11:46: 2  29Oct2013            

=------------------------------------------------------------------------------=
   JOB DONE.
=------------------------------------------------------------------------------=
