ANIMSTEPS 1
CRYSTAL
PRIMVEC
-1.0000000000000000e+01    0.0000000000000000e+00    1.0000000000000000e+01
0.0000000000000000e+00    1.0000000000000000e+01    1.0000000000000000e+01
-1.0000000000000000e+01    1.0000000000000000e+01    0.0000000000000000e+00
PRIMCOORD 1
128 1
Al	0.0000000000000000e+00    0.0000000000000000e+00    0.0000000000000000e+00    0.0000000000000000e+00    0.0000000000000000e+00    0.0000000000000000e+00
Al	-2.5000000000000000e+00    2.5000000000000000e+00    0.0000000000000000e+00    0.0000000000000000e+00    0.0000000000000000e+00    0.0000000000000000e+00
Al	-5.0000000000000000e+00    5.0000000000000000e+00    0.0000000000000000e+00    0.0000000000000000e+00    0.0000000000000000e+00    0.0000000000000000e+00
Al	-7.5000000000000000e+00    7.5000000000000000e+00    0.0000000000000000e+00    0.0000000000000000e+00    0.0000000000000000e+00    0.0000000000000000e+00
Al	0.0000000000000000e+00    2.5000000000000000e+00    2.5000000000000000e+00    0.0000000000000000e+00    0.0000000000000000e+00    0.0000000000000000e+00
Al	-2.5000000000000000e+00    5.0000000000000000e+00    2.5000000000000000e+00    0.0000000000000000e+00    0.0000000000000000e+00    0.0000000000000000e+00
Al	-5.0000000000000000e+00    7.5000000000000000e+00    2.5000000000000000e+00    0.0000000000000000e+00    0.0000000000000000e+00    0.0000000000000000e+00
Al	-7.5000000000000000e+00    1.0000000000000000e+01    2.5000000000000000e+00    0.0000000000000000e+00    0.0000000000000000e+00    0.0000000000000000e+00
Al	0.0000000000000000e+00    5.0000000000000000e+00    5.0000000000000000e+00    0.0000000000000000e+00    0.0000000000000000e+00    0.0000000000000000e+00
Al	-2.5000000000000000e+00    7.5000000000000000e+00    5.0000000000000000e+00    0.0000000000000000e+00    0.0000000000000000e+00    0.0000000000000000e+00
Al	-5.0000000000000000e+00    1.0000000000000000e+01    5.0000000000000000e+00    0.0000000000000000e+00    0.0000000000000000e+00    0.0000000000000000e+00
Al	-7.5000000000000000e+00    1.2500000000000000e+01    5.0000000000000000e+00    0.0000000000000000e+00    0.0000000000000000e+00    0.0000000000000000e+00
Al	0.0000000000000000e+00    7.5000000000000000e+00    7.5000000000000000e+00    0.0000000000000000e+00    0.0000000000000000e+00    0.0000000000000000e+00
Al	-2.5000000000000000e+00    1.0000000000000000e+01    7.5000000000000000e+00    0.0000000000000000e+00    0.0000000000000000e+00    0.0000000000000000e+00
Al	-5.0000000000000000e+00    1.2500000000000000e+01    7.5000000000000000e+00    0.0000000000000000e+00    0.0000000000000000e+00    0.0000000000000000e+00
Al	-7.5000000000000000e+00    1.5000000000000000e+01    7.5000000000000000e+00    0.0000000000000000e+00    0.0000000000000000e+00    0.0000000000000000e+00
Al	-2.5000000000000000e+00    0.0000000000000000e+00    2.5000000000000000e+00    0.0000000000000000e+00    0.0000000000000000e+00    0.0000000000000000e+00
Al	-5.0000000000000000e+00    2.5000000000000000e+00    2.5000000000000000e+00    0.0000000000000000e+00    0.0000000000000000e+00    0.0000000000000000e+00
Al	-7.5000000000000000e+00    5.0000000000000000e+00    2.5000000000000000e+00    0.0000000000000000e+00    0.0000000000000000e+00    0.0000000000000000e+00
Al	-1.0000000000000000e+01    7.5000000000000000e+00    2.5000000000000000e+00    0.0000000000000000e+00    0.0000000000000000e+00    0.0000000000000000e+00
Al	-2.5000000000000000e+00    2.5000000000000000e+00    5.0000000000000000e+00    0.0000000000000000e+00    0.0000000000000000e+00    0.0000000000000000e+00
Al	-5.0000000000000000e+00    5.0000000000000000e+00    5.0000000000000000e+00    0.0000000000000000e+00    0.0000000000000000e+00    0.0000000000000000e+00
Al	-7.5000000000000000e+00    7.5000000000000000e+00    5.0000000000000000e+00    0.0000000000000000e+00    0.0000000000000000e+00    0.0000000000000000e+00
Al	-1.0000000000000000e+01    1.0000000000000000e+01    5.0000000000000000e+00    0.0000000000000000e+00    0.0000000000000000e+00    0.0000000000000000e+00
Al	-2.5000000000000000e+00    5.0000000000000000e+00    7.5000000000000000e+00    0.0000000000000000e+00    0.0000000000000000e+00    0.0000000000000000e+00
Al	-5.0000000000000000e+00    7.5000000000000000e+00    7.5000000000000000e+00    0.0000000000000000e+00    0.0000000000000000e+00    0.0000000000000000e+00
Al	-7.5000000000000000e+00    1.0000000000000000e+01    7.5000000000000000e+00    0.0000000000000000e+00    0.0000000000000000e+00    0.0000000000000000e+00
Al	-1.0000000000000000e+01    1.2500000000000000e+01    7.5000000000000000e+00    0.0000000000000000e+00    0.0000000000000000e+00    0.0000000000000000e+00
Al	-2.5000000000000000e+00    7.5000000000000000e+00    1.0000000000000000e+01    0.0000000000000000e+00    0.0000000000000000e+00    0.0000000000000000e+00
Al	-5.0000000000000000e+00    1.0000000000000000e+01    1.0000000000000000e+01    0.0000000000000000e+00    0.0000000000000000e+00    0.0000000000000000e+00
Al	-7.5000000000000000e+00    1.2500000000000000e+01    1.0000000000000000e+01    0.0000000000000000e+00    0.0000000000000000e+00    0.0000000000000000e+00
Al	-1.0000000000000000e+01    1.5000000000000000e+01    1.0000000000000000e+01    0.0000000000000000e+00    0.0000000000000000e+00    0.0000000000000000e+00
Al	-5.0000000000000000e+00    0.0000000000000000e+00    5.0000000000000000e+00    0.0000000000000000e+00    0.0000000000000000e+00    0.0000000000000000e+00
Al	-7.5000000000000000e+00    2.5000000000000000e+00    5.0000000000000000e+00    0.0000000000000000e+00    0.0000000000000000e+00    0.0000000000000000e+00
Al	-1.0000000000000000e+01    5.0000000000000000e+00    5.0000000000000000e+00    0.0000000000000000e+00    0.0000000000000000e+00    0.0000000000000000e+00
Al	-1.2500000000000000e+01    7.5000000000000000e+00    5.0000000000000000e+00    0.0000000000000000e+00    0.0000000000000000e+00    0.0000000000000000e+00
Al	-5.0000000000000000e+00    2.5000000000000000e+00    7.5000000000000000e+00    0.0000000000000000e+00    0.0000000000000000e+00    0.0000000000000000e+00
Al	-7.5000000000000000e+00    5.0000000000000000e+00    7.5000000000000000e+00    0.0000000000000000e+00    0.0000000000000000e+00    0.0000000000000000e+00
Al	-1.0000000000000000e+01    7.5000000000000000e+00    7.5000000000000000e+00    0.0000000000000000e+00    0.0000000000000000e+00    0.0000000000000000e+00
Al	-1.2500000000000000e+01    1.0000000000000000e+01    7.5000000000000000e+00    0.0000000000000000e+00    0.0000000000000000e+00    0.0000000000000000e+00
Al	-5.0000000000000000e+00    5.0000000000000000e+00    1.0000000000000000e+01    0.0000000000000000e+00    0.0000000000000000e+00    0.0000000000000000e+00
Al	-7.5000000000000000e+00    7.5000000000000000e+00    1.0000000000000000e+01    0.0000000000000000e+00    0.0000000000000000e+00    0.0000000000000000e+00
Al	-1.0000000000000000e+01    1.0000000000000000e+01    1.0000000000000000e+01    0.0000000000000000e+00    0.0000000000000000e+00    0.0000000000000000e+00
Al	-1.2500000000000000e+01    1.2500000000000000e+01    1.0000000000000000e+01    0.0000000000000000e+00    0.0000000000000000e+00    0.0000000000000000e+00
Al	-5.0000000000000000e+00    7.5000000000000000e+00    1.2500000000000000e+01    0.0000000000000000e+00    0.0000000000000000e+00    0.0000000000000000e+00
Al	-7.5000000000000000e+00    1.0000000000000000e+01    1.2500000000000000e+01    0.0000000000000000e+00    0.0000000000000000e+00    0.0000000000000000e+00
Al	-1.0000000000000000e+01    1.2500000000000000e+01    1.2500000000000000e+01    0.0000000000000000e+00    0.0000000000000000e+00    0.0000000000000000e+00
Al	-1.2500000000000000e+01    1.5000000000000000e+01    1.2500000000000000e+01    0.0000000000000000e+00    0.0000000000000000e+00    0.0000000000000000e+00
Al	-7.5000000000000000e+00    0.0000000000000000e+00    7.5000000000000000e+00    0.0000000000000000e+00    0.0000000000000000e+00    0.0000000000000000e+00
Al	-1.0000000000000000e+01    2.5000000000000000e+00    7.5000000000000000e+00    0.0000000000000000e+00    0.0000000000000000e+00    0.0000000000000000e+00
Al	-1.2500000000000000e+01    5.0000000000000000e+00    7.5000000000000000e+00    0.0000000000000000e+00    0.0000000000000000e+00    0.0000000000000000e+00
Al	-1.5000000000000000e+01    7.5000000000000000e+00    7.5000000000000000e+00    0.0000000000000000e+00    0.0000000000000000e+00    0.0000000000000000e+00
Al	-7.5000000000000000e+00    2.5000000000000000e+00    1.0000000000000000e+01    0.0000000000000000e+00    0.0000000000000000e+00    0.0000000000000000e+00
Al	-1.0000000000000000e+01    5.0000000000000000e+00    1.0000000000000000e+01    0.0000000000000000e+00    0.0000000000000000e+00    0.0000000000000000e+00
Al	-1.2500000000000000e+01    7.5000000000000000e+00    1.0000000000000000e+01    0.0000000000000000e+00    0.0000000000000000e+00    0.0000000000000000e+00
Al	-1.5000000000000000e+01    1.0000000000000000e+01    1.0000000000000000e+01    0.0000000000000000e+00    0.0000000000000000e+00    0.0000000000000000e+00
Al	-7.5000000000000000e+00    5.0000000000000000e+00    1.2500000000000000e+01    0.0000000000000000e+00    0.0000000000000000e+00    0.0000000000000000e+00
Al	-1.0000000000000000e+01    7.5000000000000000e+00    1.2500000000000000e+01    0.0000000000000000e+00    0.0000000000000000e+00    0.0000000000000000e+00
Al	-1.2500000000000000e+01    1.0000000000000000e+01    1.2500000000000000e+01    0.0000000000000000e+00    0.0000000000000000e+00    0.0000000000000000e+00
Al	-1.5000000000000000e+01    1.2500000000000000e+01    1.2500000000000000e+01    0.0000000000000000e+00    0.0000000000000000e+00    0.0000000000000000e+00
Al	-7.5000000000000000e+00    7.5000000000000000e+00    1.5000000000000000e+01    0.0000000000000000e+00    0.0000000000000000e+00    0.0000000000000000e+00
Al	-1.0000000000000000e+01    1.0000000000000000e+01    1.5000000000000000e+01    0.0000000000000000e+00    0.0000000000000000e+00    0.0000000000000000e+00
Al	-1.2500000000000000e+01    1.2500000000000000e+01    1.5000000000000000e+01    0.0000000000000000e+00    0.0000000000000000e+00    0.0000000000000000e+00
Al	-1.5000000000000000e+01    1.5000000000000000e+01    1.5000000000000000e+01    0.0000000000000000e+00    0.0000000000000000e+00    0.0000000000000000e+00
N	-2.5000000000000000e+00    2.5000000000000000e+00    2.5000000000000000e+00    0.0000000000000000e+00    0.0000000000000000e+00    0.0000000000000000e+00
N	-5.0000000000000000e+00    5.0000000000000000e+00    2.5000000000000000e+00    0.0000000000000000e+00    0.0000000000000000e+00    0.0000000000000000e+00
N	-7.5000000000000000e+00    7.5000000000000000e+00    2.5000000000000000e+00    0.0000000000000000e+00    0.0000000000000000e+00    0.0000000000000000e+00
N	-1.0000000000000000e+01    1.0000000000000000e+01    2.5000000000000000e+00    0.0000000000000000e+00    0.0000000000000000e+00    0.0000000000000000e+00
N	-2.5000000000000000e+00    5.0000000000000000e+00    5.0000000000000000e+00    0.0000000000000000e+00    0.0000000000000000e+00    0.0000000000000000e+00
N	-5.0000000000000000e+00    7.5000000000000000e+00    5.0000000000000000e+00    0.0000000000000000e+00    0.0000000000000000e+00    0.0000000000000000e+00
N	-7.5000000000000000e+00    1.0000000000000000e+01    5.0000000000000000e+00    0.0000000000000000e+00    0.0000000000000000e+00    0.0000000000000000e+00
N	-1.0000000000000000e+01    1.2500000000000000e+01    5.0000000000000000e+00    0.0000000000000000e+00    0.0000000000000000e+00    0.0000000000000000e+00
N	-2.5000000000000000e+00    7.5000000000000000e+00    7.5000000000000000e+00    0.0000000000000000e+00    0.0000000000000000e+00    0.0000000000000000e+00
N	-5.0000000000000000e+00    1.0000000000000000e+01    7.5000000000000000e+00    0.0000000000000000e+00    0.0000000000000000e+00    0.0000000000000000e+00
N	-7.5000000000000000e+00    1.2500000000000000e+01    7.5000000000000000e+00    0.0000000000000000e+00    0.0000000000000000e+00    0.0000000000000000e+00
N	-1.0000000000000000e+01    1.5000000000000000e+01    7.5000000000000000e+00    0.0000000000000000e+00    0.0000000000000000e+00    0.0000000000000000e+00
N	-2.5000000000000000e+00    1.0000000000000000e+01    1.0000000000000000e+01    0.0000000000000000e+00    0.0000000000000000e+00    0.0000000000000000e+00
N	-5.0000000000000000e+00    1.2500000000000000e+01    1.0000000000000000e+01    0.0000000000000000e+00    0.0000000000000000e+00    0.0000000000000000e+00
N	-7.5000000000000000e+00    1.5000000000000000e+01    1.0000000000000000e+01    0.0000000000000000e+00    0.0000000000000000e+00    0.0000000000000000e+00
N	-1.0000000000000000e+01    1.7500000000000000e+01    1.0000000000000000e+01    0.0000000000000000e+00    0.0000000000000000e+00    0.0000000000000000e+00
N	-5.0000000000000000e+00    2.5000000000000000e+00    5.0000000000000000e+00    0.0000000000000000e+00    0.0000000000000000e+00    0.0000000000000000e+00
N	-7.5000000000000000e+00    5.0000000000000000e+00    5.0000000000000000e+00    0.0000000000000000e+00    0.0000000000000000e+00    0.0000000000000000e+00
N	-1.0000000000000000e+01    7.5000000000000000e+00    5.0000000000000000e+00    0.0000000000000000e+00    0.0000000000000000e+00    0.0000000000000000e+00
N	-1.2500000000000000e+01    1.0000000000000000e+01    5.0000000000000000e+00    0.0000000000000000e+00    0.0000000000000000e+00    0.0000000000000000e+00
N	-5.0000000000000000e+00    5.0000000000000000e+00    7.5000000000000000e+00    0.0000000000000000e+00    0.0000000000000000e+00    0.0000000000000000e+00
N	-7.5000000000000000e+00    7.5000000000000000e+00    7.5000000000000000e+00    0.0000000000000000e+00    0.0000000000000000e+00    0.0000000000000000e+00
N	-1.0000000000000000e+01    1.0000000000000000e+01    7.5000000000000000e+00    0.0000000000000000e+00    0.0000000000000000e+00    0.0000000000000000e+00
N	-1.2500000000000000e+01    1.2500000000000000e+01    7.5000000000000000e+00    0.0000000000000000e+00    0.0000000000000000e+00    0.0000000000000000e+00
N	-5.0000000000000000e+00    7.5000000000000000e+00    1.0000000000000000e+01    0.0000000000000000e+00    0.0000000000000000e+00    0.0000000000000000e+00
N	-7.5000000000000000e+00    1.0000000000000000e+01    1.0000000000000000e+01    0.0000000000000000e+00    0.0000000000000000e+00    0.0000000000000000e+00
N	-1.0000000000000000e+01    1.2500000000000000e+01    1.0000000000000000e+01    0.0000000000000000e+00    0.0000000000000000e+00    0.0000000000000000e+00
N	-1.2500000000000000e+01    1.5000000000000000e+01    1.0000000000000000e+01    0.0000000000000000e+00    0.0000000000000000e+00    0.0000000000000000e+00
N	-5.0000000000000000e+00    1.0000000000000000e+01    1.2500000000000000e+01    0.0000000000000000e+00    0.0000000000000000e+00    0.0000000000000000e+00
N	-7.5000000000000000e+00    1.2500000000000000e+01    1.2500000000000000e+01    0.0000000000000000e+00    0.0000000000000000e+00    0.0000000000000000e+00
N	-1.0000000000000000e+01    1.5000000000000000e+01    1.2500000000000000e+01    0.0000000000000000e+00    0.0000000000000000e+00    0.0000000000000000e+00
N	-1.2500000000000000e+01    1.7500000000000000e+01    1.2500000000000000e+01    0.0000000000000000e+00    0.0000000000000000e+00    0.0000000000000000e+00
N	-7.5000000000000000e+00    2.5000000000000000e+00    7.5000000000000000e+00    0.0000000000000000e+00    0.0000000000000000e+00    0.0000000000000000e+00
N	-1.0000000000000000e+01    5.0000000000000000e+00    7.5000000000000000e+00    0.0000000000000000e+00    0.0000000000000000e+00    0.0000000000000000e+00
N	-1.2500000000000000e+01    7.5000000000000000e+00    7.5000000000000000e+00    0.0000000000000000e+00    0.0000000000000000e+00    0.0000000000000000e+00
N	-1.5000000000000000e+01    1.0000000000000000e+01    7.5000000000000000e+00    0.0000000000000000e+00    0.0000000000000000e+00    0.0000000000000000e+00
N	-7.5000000000000000e+00    5.0000000000000000e+00    1.0000000000000000e+01    0.0000000000000000e+00    0.0000000000000000e+00    0.0000000000000000e+00
N	-1.0000000000000000e+01    7.5000000000000000e+00    1.0000000000000000e+01    0.0000000000000000e+00    0.0000000000000000e+00    0.0000000000000000e+00
N	-1.2500000000000000e+01    1.0000000000000000e+01    1.0000000000000000e+01    0.0000000000000000e+00    0.0000000000000000e+00    0.0000000000000000e+00
N	-1.5000000000000000e+01    1.2500000000000000e+01    1.0000000000000000e+01    0.0000000000000000e+00    0.0000000000000000e+00    0.0000000000000000e+00
N	-7.5000000000000000e+00    7.5000000000000000e+00    1.2500000000000000e+01    0.0000000000000000e+00    0.0000000000000000e+00    0.0000000000000000e+00
N	-1.0000000000000000e+01    1.0000000000000000e+01    1.2500000000000000e+01    0.0000000000000000e+00    0.0000000000000000e+00    0.0000000000000000e+00
N	-1.2500000000000000e+01    1.2500000000000000e+01    1.2500000000000000e+01    0.0000000000000000e+00    0.0000000000000000e+00    0.0000000000000000e+00
N	-1.5000000000000000e+01    1.5000000000000000e+01    1.2500000000000000e+01    0.0000000000000000e+00    0.0000000000000000e+00    0.0000000000000000e+00
N	-7.5000000000000000e+00    1.0000000000000000e+01    1.5000000000000000e+01    0.0000000000000000e+00    0.0000000000000000e+00    0.0000000000000000e+00
N	-1.0000000000000000e+01    1.2500000000000000e+01    1.5000000000000000e+01    0.0000000000000000e+00    0.0000000000000000e+00    0.0000000000000000e+00
N	-1.2500000000000000e+01    1.5000000000000000e+01    1.5000000000000000e+01    0.0000000000000000e+00    0.0000000000000000e+00    0.0000000000000000e+00
N	-1.5000000000000000e+01    1.7500000000000000e+01    1.5000000000000000e+01    0.0000000000000000e+00    0.0000000000000000e+00    0.0000000000000000e+00
N	-1.0000000000000000e+01    2.5000000000000000e+00    1.0000000000000000e+01    0.0000000000000000e+00    0.0000000000000000e+00    0.0000000000000000e+00
N	-1.2500000000000000e+01    5.0000000000000000e+00    1.0000000000000000e+01    0.0000000000000000e+00    0.0000000000000000e+00    0.0000000000000000e+00
N	-1.5000000000000000e+01    7.5000000000000000e+00    1.0000000000000000e+01    0.0000000000000000e+00    0.0000000000000000e+00    0.0000000000000000e+00
N	-1.7500000000000000e+01    1.0000000000000000e+01    1.0000000000000000e+01    0.0000000000000000e+00    0.0000000000000000e+00    0.0000000000000000e+00
N	-1.0000000000000000e+01    5.0000000000000000e+00    1.2500000000000000e+01    0.0000000000000000e+00    0.0000000000000000e+00    0.0000000000000000e+00
N	-1.2500000000000000e+01    7.5000000000000000e+00    1.2500000000000000e+01    0.0000000000000000e+00    0.0000000000000000e+00    0.0000000000000000e+00
N	-1.5000000000000000e+01    1.0000000000000000e+01    1.2500000000000000e+01    0.0000000000000000e+00    0.0000000000000000e+00    0.0000000000000000e+00
N	-1.7500000000000000e+01    1.2500000000000000e+01    1.2500000000000000e+01    0.0000000000000000e+00    0.0000000000000000e+00    0.0000000000000000e+00
N	-1.0000000000000000e+01    7.5000000000000000e+00    1.5000000000000000e+01    0.0000000000000000e+00    0.0000000000000000e+00    0.0000000000000000e+00
N	-1.2500000000000000e+01    1.0000000000000000e+01    1.5000000000000000e+01    0.0000000000000000e+00    0.0000000000000000e+00    0.0000000000000000e+00
N	-1.5000000000000000e+01    1.2500000000000000e+01    1.5000000000000000e+01    0.0000000000000000e+00    0.0000000000000000e+00    0.0000000000000000e+00
N	-1.7500000000000000e+01    1.5000000000000000e+01    1.5000000000000000e+01    0.0000000000000000e+00    0.0000000000000000e+00    0.0000000000000000e+00
N	-1.0000000000000000e+01    1.0000000000000000e+01    1.7500000000000000e+01    0.0000000000000000e+00    0.0000000000000000e+00    0.0000000000000000e+00
N	-1.2500000000000000e+01    1.2500000000000000e+01    1.7500000000000000e+01    0.0000000000000000e+00    0.0000000000000000e+00    0.0000000000000000e+00
N	-1.5000000000000000e+01    1.5000000000000000e+01    1.7500000000000000e+01    0.0000000000000000e+00    0.0000000000000000e+00    0.0000000000000000e+00
N	-1.7500000000000000e+01    1.7500000000000000e+01    1.7500000000000000e+01    0.0000000000000000e+00    0.0000000000000000e+00    0.0000000000000000e+00