ANIMSTEPS 1
CRYSTAL
PRIMVEC
1.0000000000000000e+01    0.0000000000000000e+00    0.0000000000000000e+00
0.0000000000000000e+00    1.0000000000000000e+01    0.0000000000000000e+00
0.0000000000000000e+00    0.0000000000000000e+00    1.0000000000000000e+01
PRIMCOORD 1
64 1
Al	0.0000000000000000e+00    0.0000000000000000e+00    0.0000000000000000e+00    0.0000000000000000e+00    0.0000000000000000e+00    0.0000000000000000e+00
Al	0.0000000000000000e+00    0.0000000000000000e+00    5.0000000000000000e+00    0.0000000000000000e+00    0.0000000000000000e+00    0.0000000000000000e+00
Al	0.0000000000000000e+00    5.0000000000000000e+00    0.0000000000000000e+00    0.0000000000000000e+00    0.0000000000000000e+00    0.0000000000000000e+00
Al	0.0000000000000000e+00    5.0000000000000000e+00    5.0000000000000000e+00    0.0000000000000000e+00    0.0000000000000000e+00    0.0000000000000000e+00
Al	5.0000000000000000e+00    0.0000000000000000e+00    0.0000000000000000e+00    0.0000000000000000e+00    0.0000000000000000e+00    0.0000000000000000e+00
Al	5.0000000000000000e+00    0.0000000000000000e+00    5.0000000000000000e+00    0.0000000000000000e+00    0.0000000000000000e+00    0.0000000000000000e+00
Al	5.0000000000000000e+00    5.0000000000000000e+00    0.0000000000000000e+00    0.0000000000000000e+00    0.0000000000000000e+00    0.0000000000000000e+00
Al	5.0000000000000000e+00    5.0000000000000000e+00    5.0000000000000000e+00    0.0000000000000000e+00    0.0000000000000000e+00    0.0000000000000000e+00
N	2.5000000000000000e+00    0.0000000000000000e+00    0.0000000000000000e+00    0.0000000000000000e+00    0.0000000000000000e+00    0.0000000000000000e+00
N	2.5000000000000000e+00    0.0000000000000000e+00    5.0000000000000000e+00    0.0000000000000000e+00    0.0000000000000000e+00    0.0000000000000000e+00
N	2.5000000000000000e+00    5.0000000000000000e+00    0.0000000000000000e+00    0.0000000000000000e+00    0.0000000000000000e+00    0.0000000000000000e+00
N	2.5000000000000000e+00    5.0000000000000000e+00    5.0000000000000000e+00    0.0000000000000000e+00    0.0000000000000000e+00    0.0000000000000000e+00
N	7.5000000000000000e+00    0.0000000000000000e+00    0.0000000000000000e+00    0.0000000000000000e+00    0.0000000000000000e+00    0.0000000000000000e+00
N	7.5000000000000000e+00    0.0000000000000000e+00    5.0000000000000000e+00    0.0000000000000000e+00    0.0000000000000000e+00    0.0000000000000000e+00
N	7.5000000000000000e+00    5.0000000000000000e+00    0.0000000000000000e+00    0.0000000000000000e+00    0.0000000000000000e+00    0.0000000000000000e+00
N	7.5000000000000000e+00    5.0000000000000000e+00    5.0000000000000000e+00    0.0000000000000000e+00    0.0000000000000000e+00    0.0000000000000000e+00
N	0.0000000000000000e+00    2.5000000000000000e+00    0.0000000000000000e+00    0.0000000000000000e+00    0.0000000000000000e+00    0.0000000000000000e+00
N	0.0000000000000000e+00    2.5000000000000000e+00    5.0000000000000000e+00    0.0000000000000000e+00    0.0000000000000000e+00    0.0000000000000000e+00
N	0.0000000000000000e+00    7.5000000000000000e+00    0.0000000000000000e+00    0.0000000000000000e+00    0.0000000000000000e+00    0.0000000000000000e+00
N	0.0000000000000000e+00    7.5000000000000000e+00    5.0000000000000000e+00    0.0000000000000000e+00    0.0000000000000000e+00    0.0000000000000000e+00
N	5.0000000000000000e+00    2.5000000000000000e+00    0.0000000000000000e+00    0.0000000000000000e+00    0.0000000000000000e+00    0.0000000000000000e+00
N	5.0000000000000000e+00    2.5000000000000000e+00    5.0000000000000000e+00    0.0000000000000000e+00    0.0000000000000000e+00    0.0000000000000000e+00
N	5.0000000000000000e+00    7.5000000000000000e+00    0.0000000000000000e+00    0.0000000000000000e+00    0.0000000000000000e+00    0.0000000000000000e+00
N	5.0000000000000000e+00    7.5000000000000000e+00    5.0000000000000000e+00    0.0000000000000000e+00    0.0000000000000000e+00    0.0000000000000000e+00
Al	2.5000000000000000e+00    2.5000000000000000e+00    0.0000000000000000e+00    0.0000000000000000e+00    0.0000000000000000e+00    0.0000000000000000e+00
Al	2.5000000000000000e+00    2.5000000000000000e+00    5.0000000000000000e+00    0.0000000000000000e+00    0.0000000000000000e+00    0.0000000000000000e+00
Al	2.5000000000000000e+00    7.5000000000000000e+00    0.0000000000000000e+00    0.0000000000000000e+00    0.0000000000000000e+00    0.0000000000000000e+00
Al	2.5000000000000000e+00    7.5000000000000000e+00    5.0000000000000000e+00    0.0000000000000000e+00    0.0000000000000000e+00    0.0000000000000000e+00
Al	7.5000000000000000e+00    2.5000000000000000e+00    0.0000000000000000e+00    0.0000000000000000e+00    0.0000000000000000e+00    0.0000000000000000e+00
Al	7.5000000000000000e+00    2.5000000000000000e+00    5.0000000000000000e+00    0.0000000000000000e+00    0.0000000000000000e+00    0.0000000000000000e+00
Al	7.5000000000000000e+00    7.5000000000000000e+00    0.0000000000000000e+00    0.0000000000000000e+00    0.0000000000000000e+00    0.0000000000000000e+00
Al	7.5000000000000000e+00    7.5000000000000000e+00    5.0000000000000000e+00    0.0000000000000000e+00    0.0000000000000000e+00    0.0000000000000000e+00
N	0.0000000000000000e+00    0.0000000000000000e+00    2.5000000000000000e+00    0.0000000000000000e+00    0.0000000000000000e+00    0.0000000000000000e+00
N	0.0000000000000000e+00    0.0000000000000000e+00    7.5000000000000000e+00    0.0000000000000000e+00    0.0000000000000000e+00    0.0000000000000000e+00
N	0.0000000000000000e+00    5.0000000000000000e+00    2.5000000000000000e+00    0.0000000000000000e+00    0.0000000000000000e+00    0.0000000000000000e+00
N	0.0000000000000000e+00    5.0000000000000000e+00    7.5000000000000000e+00    0.0000000000000000e+00    0.0000000000000000e+00    0.0000000000000000e+00
N	5.0000000000000000e+00    0.0000000000000000e+00    2.5000000000000000e+00    0.0000000000000000e+00    0.0000000000000000e+00    0.0000000000000000e+00
N	5.0000000000000000e+00    0.0000000000000000e+00    7.5000000000000000e+00    0.0000000000000000e+00    0.0000000000000000e+00    0.0000000000000000e+00
N	5.0000000000000000e+00    5.0000000000000000e+00    2.5000000000000000e+00    0.0000000000000000e+00    0.0000000000000000e+00    0.0000000000000000e+00
N	5.0000000000000000e+00    5.0000000000000000e+00    7.5000000000000000e+00    0.0000000000000000e+00    0.0000000000000000e+00    0.0000000000000000e+00
Al	2.5000000000000000e+00    0.0000000000000000e+00    2.5000000000000000e+00    0.0000000000000000e+00    0.0000000000000000e+00    0.0000000000000000e+00
Al	2.5000000000000000e+00    0.0000000000000000e+00    7.5000000000000000e+00    0.0000000000000000e+00    0.0000000000000000e+00    0.0000000000000000e+00
Al	2.5000000000000000e+00    5.0000000000000000e+00    2.5000000000000000e+00    0.0000000000000000e+00    0.0000000000000000e+00    0.0000000000000000e+00
Al	2.5000000000000000e+00    5.0000000000000000e+00    7.5000000000000000e+00    0.0000000000000000e+00    0.0000000000000000e+00    0.0000000000000000e+00
Al	7.5000000000000000e+00    0.0000000000000000e+00    2.5000000000000000e+00    0.0000000000000000e+00    0.0000000000000000e+00    0.0000000000000000e+00
Al	7.5000000000000000e+00    0.0000000000000000e+00    7.5000000000000000e+00    0.0000000000000000e+00    0.0000000000000000e+00    0.0000000000000000e+00
Al	7.5000000000000000e+00    5.0000000000000000e+00    2.5000000000000000e+00    0.0000000000000000e+00    0.0000000000000000e+00    0.0000000000000000e+00
Al	7.5000000000000000e+00    5.0000000000000000e+00    7.5000000000000000e+00    0.0000000000000000e+00    0.0000000000000000e+00    0.0000000000000000e+00
Al	0.0000000000000000e+00    2.5000000000000000e+00    2.5000000000000000e+00    0.0000000000000000e+00    0.0000000000000000e+00    0.0000000000000000e+00
Al	0.0000000000000000e+00    2.5000000000000000e+00    7.5000000000000000e+00    0.0000000000000000e+00    0.0000000000000000e+00    0.0000000000000000e+00
Al	0.0000000000000000e+00    7.5000000000000000e+00    2.5000000000000000e+00    0.0000000000000000e+00    0.0000000000000000e+00    0.0000000000000000e+00
Al	0.0000000000000000e+00    7.5000000000000000e+00    7.5000000000000000e+00    0.0000000000000000e+00    0.0000000000000000e+00    0.0000000000000000e+00
Al	5.0000000000000000e+00    2.5000000000000000e+00    2.5000000000000000e+00    0.0000000000000000e+00    0.0000000000000000e+00    0.0000000000000000e+00
Al	5.0000000000000000e+00    2.5000000000000000e+00    7.5000000000000000e+00    0.0000000000000000e+00    0.0000000000000000e+00    0.0000000000000000e+00
Al	5.0000000000000000e+00    7.5000000000000000e+00    2.5000000000000000e+00    0.0000000000000000e+00    0.0000000000000000e+00    0.0000000000000000e+00
Al	5.0000000000000000e+00    7.5000000000000000e+00    7.5000000000000000e+00    0.0000000000000000e+00    0.0000000000000000e+00    0.0000000000000000e+00
N	2.5000000000000000e+00    2.5000000000000000e+00    2.5000000000000000e+00    0.0000000000000000e+00    0.0000000000000000e+00    0.0000000000000000e+00
N	2.5000000000000000e+00    2.5000000000000000e+00    7.5000000000000000e+00    0.0000000000000000e+00    0.0000000000000000e+00    0.0000000000000000e+00
N	2.5000000000000000e+00    7.5000000000000000e+00    2.5000000000000000e+00    0.0000000000000000e+00    0.0000000000000000e+00    0.0000000000000000e+00
N	2.5000000000000000e+00    7.5000000000000000e+00    7.5000000000000000e+00    0.0000000000000000e+00    0.0000000000000000e+00    0.0000000000000000e+00
N	7.5000000000000000e+00    2.5000000000000000e+00    2.5000000000000000e+00    0.0000000000000000e+00    0.0000000000000000e+00    0.0000000000000000e+00
N	7.5000000000000000e+00    2.5000000000000000e+00    7.5000000000000000e+00    0.0000000000000000e+00    0.0000000000000000e+00    0.0000000000000000e+00
N	7.5000000000000000e+00    7.5000000000000000e+00    2.5000000000000000e+00    0.0000000000000000e+00    0.0000000000000000e+00    0.0000000000000000e+00
N	7.5000000000000000e+00    7.5000000000000000e+00    7.5000000000000000e+00    0.0000000000000000e+00    0.0000000000000000e+00    0.0000000000000000e+00