ANIMSTEPS 1
CRYSTAL
PRIMVEC
1.0000000000000000e+01    0.0000000000000000e+00    0.0000000000000000e+00
0.0000000000000000e+00    1.0000000000000000e+01    0.0000000000000000e+00
0.0000000000000000e+00    0.0000000000000000e+00    1.0000000000000000e+01
PRIMCOORD 1
100 1
H	5.5079790257457546e+00    7.0814782261810478e+00    2.9090473891294435e+00    0.0000000000000000e+00    0.0000000000000000e+00    0.0000000000000000e+00
H	5.1082760519766301e+00    8.9294695434765465e+00    8.9629308893343804e+00    0.0000000000000000e+00    0.0000000000000000e+00    0.0000000000000000e+00
H	1.2558531046383625e+00    2.0724287813818676e+00    5.1467203300829878e-01    0.0000000000000000e+00    0.0000000000000000e+00    0.0000000000000000e+00
H	4.4080984365063642e+00    2.9876210878566956e-01    4.5683322439471112e+00    0.0000000000000000e+00    0.0000000000000000e+00    0.0000000000000000e+00
H	6.4914404761476074e+00    2.7848728264797531e+00    6.7625490198013125e+00    0.0000000000000000e+00    0.0000000000000000e+00    0.0000000000000000e+00
H	5.9086281741635087e+00    2.3981882377165364e-01    5.5885408799088196e+00    0.0000000000000000e+00    0.0000000000000000e+00    0.0000000000000000e+00
H	2.5925244690746538e+00    4.1510119701006962e+00    2.8352508177131872e+00    0.0000000000000000e+00    0.0000000000000000e+00    0.0000000000000000e+00
H	6.9313791831299634e+00    4.4045371767073949e+00    1.5686773847496327e+00    0.0000000000000000e+00    0.0000000000000000e+00    0.0000000000000000e+00
H	5.4464901803184471e+00    7.8031476451136701e+00    3.0636353237617975e+00    0.0000000000000000e+00    0.0000000000000000e+00    0.0000000000000000e+00
H	2.2195788393218141e+00    3.8797125755564874e+00    9.3638364986043037e+00    0.0000000000000000e+00    0.0000000000000000e+00    0.0000000000000000e+00
H	9.7599542247293378e+00    6.7238367591281367e+00    9.0283410853839801e+00    0.0000000000000000e+00    0.0000000000000000e+00    0.0000000000000000e+00
H	8.4575087129317925e+00    3.7799404132888914e+00    9.2217008871724238e-01    0.0000000000000000e+00    0.0000000000000000e+00    0.0000000000000000e+00
H	6.5341090252353613e+00    5.5784076238845088e+00    3.6156476306257810e+00    0.0000000000000000e+00    0.0000000000000000e+00    0.0000000000000000e+00
H	2.2505450483983189e+00    4.0651991637624860e+00    4.6894024869916908e+00    0.0000000000000000e+00    0.0000000000000000e+00    0.0000000000000000e+00
H	2.6923557825106128e+00    2.9179277422543262e+00    4.5768639932297797e+00    0.0000000000000000e+00    0.0000000000000000e+00    0.0000000000000000e+00
H	8.6053391294692645e+00    5.8625290446782143e+00    2.8348786243220978e+00    0.0000000000000000e+00    0.0000000000000000e+00    0.0000000000000000e+00
H	2.7797750662360130e+00    4.5462207552194673e+00    2.0541034460498753e+00    0.0000000000000000e+00    0.0000000000000000e+00    0.0000000000000000e+00
H	2.0137871104307314e+00    5.1403505981744191e+00    8.7229368780804672e-01    0.0000000000000000e+00    0.0000000000000000e+00    0.0000000000000000e+00
H	4.8358553235158652e+00    3.6217621238783337e+00    7.0768662181567112e+00    0.0000000000000000e+00    0.0000000000000000e+00    0.0000000000000000e+00
H	7.4674622310200451e+00    6.9109292185576434e+00    6.8918041375491415e+00    0.0000000000000000e+00    0.0000000000000000e+00    0.0000000000000000e+00
H	3.7360012414892827e+00    6.6813480473526754e+00    3.3984866395681790e+00    0.0000000000000000e+00    0.0000000000000000e+00    0.0000000000000000e+00
H	5.7279386986887504e+00    3.2580715806487448e+00    4.4514504926353204e+00    0.0000000000000000e+00    0.0000000000000000e+00    0.0000000000000000e+00
H	6.1528930829939266e-01    2.4267542218433813e+00    9.7160260617356755e+00    0.0000000000000000e+00    0.0000000000000000e+00    0.0000000000000000e+00
H	2.3058420435507401e+00    6.9147751094733021e+00    6.5047685821373955e+00    0.0000000000000000e+00    0.0000000000000000e+00    0.0000000000000000e+00
H	7.2393913943748212e+00    4.7508861063443133e+00    5.9666377460186286e+00    0.0000000000000000e+00    0.0000000000000000e+00    0.0000000000000000e+00
H	6.6969423932826344e-01    7.2562137822233419e-01    1.9897602629707833e+00    0.0000000000000000e+00    0.0000000000000000e+00    0.0000000000000000e+00
H	1.5186099700854105e+00    1.0010434458144468e+00    1.2929386460885417e+00    0.0000000000000000e+00    0.0000000000000000e+00    0.0000000000000000e+00
H	5.5327773180765352e+00    1.8781482492387824e+00    9.5210124303120818e+00    0.0000000000000000e+00    0.0000000000000000e+00    0.0000000000000000e+00
H	6.8161177880742665e+00    5.4101967335977115e+00    7.0718060080789771e+00    0.0000000000000000e+00    0.0000000000000000e+00    0.0000000000000000e+00
H	2.6388667095251339e+00    9.2672568425372788e+00    8.3919305779997071e+00    0.0000000000000000e+00    0.0000000000000000e+00    0.0000000000000000e+00
H	7.2631949842803722e+00    4.8023995608541004e+00    8.4210318587664688e+00    0.0000000000000000e+00    0.0000000000000000e+00    0.0000000000000000e+00
H	7.4475232342435929e+00    6.6032590639961253e+00    9.1397526700593783e+00    0.0000000000000000e+00    0.0000000000000000e+00    0.0000000000000000e+00
H	6.3366556378757473e+00    3.6594058485260939e+00    5.5284457315044557e+00    0.0000000000000000e+00    0.0000000000000000e+00    0.0000000000000000e+00
H	1.9638057670013687e+00    1.9207229639360313e+00    7.2566962393282086e+00    0.0000000000000000e+00    0.0000000000000000e+00    0.0000000000000000e+00
H	7.8493670343113111e+00    9.7209836368376585e+00    8.5097141704150161e+00    0.0000000000000000e+00    0.0000000000000000e+00    0.0000000000000000e+00
H	5.4359432659582279e+00    8.9790869523064809e-01    4.8887324461611286e+00    0.0000000000000000e+00    0.0000000000000000e+00    0.0000000000000000e+00
H	9.2793634756212562e+00    7.8761819950347629e+00    4.8509422605408812e+00    0.0000000000000000e+00    0.0000000000000000e+00    0.0000000000000000e+00
H	4.5527936148088628e+00    2.1798576840935358e+00    1.7721338080182358e+00    0.0000000000000000e+00    0.0000000000000000e+00    0.0000000000000000e+00
H	7.3623669219357590e-01    8.9239318758709256e+00    6.4017661689905889e+00    0.0000000000000000e+00    0.0000000000000000e+00    0.0000000000000000e+00
H	1.4333231747132136e+00    4.1412691971620728e+00    4.9108924397873621e-01    0.0000000000000000e+00    0.0000000000000000e+00    0.0000000000000000e+00
H	2.0937334952236366e+00    7.3070812412903834e+00    6.5112277044159939e+00    0.0000000000000000e+00    0.0000000000000000e+00    0.0000000000000000e+00
H	4.7897829737697775e+00    2.7478050549563928e+00    6.5222312506618474e+00    0.0000000000000000e+00    0.0000000000000000e+00    0.0000000000000000e+00
H	9.5644951131738036e+00    4.3552055617519283e+00    7.0132505087670216e-01    0.0000000000000000e+00    0.0000000000000000e+00    0.0000000000000000e+00
H	5.7731487822967553e-01    8.2871018797557428e-01    9.5970718725322115e+00    0.0000000000000000e+00    0.0000000000000000e+00    0.0000000000000000e+00
H	5.4076083618649387e+00    8.3746243266972247e+00    1.7003354423713468e+00    0.0000000000000000e+00    0.0000000000000000e+00    0.0000000000000000e+00
H	2.6034507272891516e+00    6.9197751187284275e+00    8.9557032814198365e+00    0.0000000000000000e+00    0.0000000000000000e+00    0.0000000000000000e+00
H	3.4068848446015956e+00    6.4673197990283260e-01    8.6411966941064371e+00    0.0000000000000000e+00    0.0000000000000000e+00    0.0000000000000000e+00
H	2.9087244582947602e+00    7.4108240639956255e+00    1.5803365470149400e+00    0.0000000000000000e+00    0.0000000000000000e+00    0.0000000000000000e+00
H	6.9496343514087586e+00    8.4141961903114808e+00    7.2715207874670931e+00    0.0000000000000000e+00    0.0000000000000000e+00    0.0000000000000000e+00
H	3.5910752486349140e+00    7.2668975149019790e+00    1.3946712418246032e+00    0.0000000000000000e+00    0.0000000000000000e+00    0.0000000000000000e+00
H	3.1381911523322206e+00    4.1958275668294451e+00    8.7721203894431703e+00    0.0000000000000000e+00    0.0000000000000000e+00    0.0000000000000000e+00
H	1.5374020857114301e+00    8.8012479024931558e+00    7.9896431922080389e+00    0.0000000000000000e+00    0.0000000000000000e+00    0.0000000000000000e+00
H	9.7162429707798061e+00    3.6770298330346041e+00    2.0493976890777912e+00    0.0000000000000000e+00    0.0000000000000000e+00    0.0000000000000000e+00
H	2.4057032033459902e+00    8.2786280142142097e+00    9.6522814859391541e+00    0.0000000000000000e+00    0.0000000000000000e+00    0.0000000000000000e+00
H	6.9880999838042346e+00    4.8249704177382995e+00    2.8704976468113284e+00    0.0000000000000000e+00    0.0000000000000000e+00    0.0000000000000000e+00
H	8.3368788434315970e+00    8.7217950839942588e+00    9.2131591800591606e-01    0.0000000000000000e+00    0.0000000000000000e+00    0.0000000000000000e+00
H	2.1594947101977668e+00    8.3176109045786646e+00    8.4830389707949614e+00    0.0000000000000000e+00    0.0000000000000000e+00    0.0000000000000000e+00
H	3.1465299876399735e+00    2.7929459684685631e+00    4.3081502201845998e+00    0.0000000000000000e+00    0.0000000000000000e+00    0.0000000000000000e+00
H	5.3944650026466681e+00    9.5566815006613570e-01    8.3691213871361505e+00    0.0000000000000000e+00    0.0000000000000000e+00    0.0000000000000000e+00
H	5.3473487035132097e+00    7.7496781504092365e+00    2.3083626557632684e+00    0.0000000000000000e+00    0.0000000000000000e+00    0.0000000000000000e+00
H	9.6529335110636580e+00    7.5102730731837930e+00    3.4309386439196143e+00    0.0000000000000000e+00    0.0000000000000000e+00    0.0000000000000000e+00
H	9.4852764695995475e+00    7.0051177896627284e+00    8.4056108548623705e+00    0.0000000000000000e+00    0.0000000000000000e+00    0.0000000000000000e+00
H	4.5497305855868864e-01    5.5641541051688170e-01    7.4273727354962880e+00    0.0000000000000000e+00    0.0000000000000000e+00    0.0000000000000000e+00
H	3.0468643294839204e+00    5.1678436584324530e+00    1.5626242367127352e+00    0.0000000000000000e+00    0.0000000000000000e+00    0.0000000000000000e+00
H	9.7795240965698476e+00    5.0275104767441947e+00    8.2900107847472544e+00    0.0000000000000000e+00    0.0000000000000000e+00    0.0000000000000000e+00
H	7.4037796279996404e-01    4.7891545221783813e+00    6.2279480405775911e-01    0.0000000000000000e+00    0.0000000000000000e+00    0.0000000000000000e+00
H	8.8424143108773716e+00    4.4581017871295883e+00    6.8549918261836762e-01    0.0000000000000000e+00    0.0000000000000000e+00    0.0000000000000000e+00
H	7.6496282315957065e-01    5.3879265800317002e+00    7.5566404505230778e-01    0.0000000000000000e+00    0.0000000000000000e+00    0.0000000000000000e+00
H	1.8377231801244276e+00    4.3635708416651395e+00    4.9778283101845746e+00    0.0000000000000000e+00    0.0000000000000000e+00    0.0000000000000000e+00
H	5.8331191524175736e+00    6.2051268140490734e+00    3.7281149964266849e+00    0.0000000000000000e+00    0.0000000000000000e+00    0.0000000000000000e+00
H	6.1873658298057990e+00    1.5724465838513624e+00    2.7550847543369361e+00    0.0000000000000000e+00    0.0000000000000000e+00    0.0000000000000000e+00
H	7.9871827059631055e+00    1.5308930072651616e+00    2.2332297288573679e+00    0.0000000000000000e+00    0.0000000000000000e+00    0.0000000000000000e+00
H	2.4297817969395510e+00    4.7950730482306696e+00    7.4552204189792803e-03    0.0000000000000000e+00    0.0000000000000000e+00    0.0000000000000000e+00
H	3.0311360522466524e-01    4.6154815164780549e+00    1.6252068486651927e+00    0.0000000000000000e+00    0.0000000000000000e+00    0.0000000000000000e+00
H	6.7950180377328522e+00    7.9520458717663844e+00    5.7816335873771019e+00    0.0000000000000000e+00    0.0000000000000000e+00    0.0000000000000000e+00
H	6.9476497717320571e+00    3.9095801573387865e+00    4.6296202992948343e-01    0.0000000000000000e+00    0.0000000000000000e+00    0.0000000000000000e+00
H	4.3942153262964929e+00    3.7198031220943975e+00    5.9700324220033005e+00    0.0000000000000000e+00    0.0000000000000000e+00    0.0000000000000000e+00
H	1.3421816969903311e+00    2.2771289672183590e+00    8.1478241652727981e+00    0.0000000000000000e+00    0.0000000000000000e+00    0.0000000000000000e+00
H	2.6432552664021314e+00    4.1032020490716326e+00    9.3597217649578148e+00    0.0000000000000000e+00    0.0000000000000000e+00    0.0000000000000000e+00
H	2.7555246302085457e+00    1.4528995885356388e+00    7.0202012933145230e+00    0.0000000000000000e+00    0.0000000000000000e+00    0.0000000000000000e+00
H	5.6706655044127459e+00    6.1159383554659694e+00    4.2030850993573621e-01    0.0000000000000000e+00    0.0000000000000000e+00    0.0000000000000000e+00
H	4.1726689475722676e+00    4.2664341671594386e-02    2.4653546886088948e+00    0.0000000000000000e+00    0.0000000000000000e+00    0.0000000000000000e+00
H	7.0605618358400637e+00    6.1540715920699762e-01    2.9469349860327987e+00    0.0000000000000000e+00    0.0000000000000000e+00    0.0000000000000000e+00
H	9.8811275281217821e+00    9.7122223022697547e+00    4.8184638867970495e+00    0.0000000000000000e+00    0.0000000000000000e+00    0.0000000000000000e+00
H	7.3569338652824587e+00    6.3265577418613894e+00    4.6569307144373671e+00    0.0000000000000000e+00    0.0000000000000000e+00    0.0000000000000000e+00
H	8.5706643264131959e+00    1.7251825216617900e+00    8.2843192224411055e+00    0.0000000000000000e+00    0.0000000000000000e+00    0.0000000000000000e+00
H	4.2069523458318048e-01    8.6695369181279851e+00    6.7599658746824778e+00    0.0000000000000000e+00    0.0000000000000000e+00    0.0000000000000000e+00
H	4.4591410991086855e+00    6.7157024763427700e+00    4.6036850388924186e+00    0.0000000000000000e+00    0.0000000000000000e+00    0.0000000000000000e+00
H	7.8000322237858519e+00    1.1344408386411731e+00    5.0815742884860535e+00    0.0000000000000000e+00    0.0000000000000000e+00    0.0000000000000000e+00
H	8.7148953994387295e+00    9.2752927581202247e+00    2.2033633154831267e+00    0.0000000000000000e+00    0.0000000000000000e+00    0.0000000000000000e+00
H	2.5193030255461890e+00    9.0401247160898865e+00    3.4551733871512846e+00    0.0000000000000000e+00    0.0000000000000000e+00    0.0000000000000000e+00
H	5.6872574048715596e-01    7.1488667211203278e+00    4.1441885915335783e+00    0.0000000000000000e+00    0.0000000000000000e+00    0.0000000000000000e+00
H	7.3532418749514408e+00    4.7709163344336938e+00    5.0056555443643189e+00    0.0000000000000000e+00    0.0000000000000000e+00    0.0000000000000000e+00
H	4.1756191040858948e+00    2.9048489603515151e+00    9.0071086738735104e+00    0.0000000000000000e+00    0.0000000000000000e+00    0.0000000000000000e+00
H	6.6878757798510726e+00    7.8883234334296715e+00    8.9573953109311724e+00    0.0000000000000000e+00    0.0000000000000000e+00    0.0000000000000000e+00
H	2.5018894238936005e+00    9.1982061397242241e+00    8.6260508725855818e+00    0.0000000000000000e+00    0.0000000000000000e+00    0.0000000000000000e+00
H	5.0608526212498637e+00    5.6790217414403070e+00    1.1493223803677854e+00    0.0000000000000000e+00    0.0000000000000000e+00    0.0000000000000000e+00
H	7.6211584055776864e+00    1.7322500718432365e+00    5.3383604100590958e+00    0.0000000000000000e+00    0.0000000000000000e+00    0.0000000000000000e+00
H	1.2643730522871921e+00    7.2917093582157255e-01    6.0902744376056450e+00    0.0000000000000000e+00    0.0000000000000000e+00    0.0000000000000000e+00
H	4.9120312961568002e+00    6.7480993473927260e+00    7.9085418305428430e+00    0.0000000000000000e+00    0.0000000000000000e+00    0.0000000000000000e+00