
     Program PWSCF v.5.0.2 (svn rev. 9656) starts on  1Oct2013 at 11:28:53

     This program is part of the open-source Quantum ESPRESSO suite
     for quantum simulation of materials; please cite
         "P. Giannozzi et al., J. Phys.:Condens. Matter 21 395502 (2009);
          URL http://www.quantum-espresso.org",
     in publications or presentations arising from this work. More details at
     http://www.quantum-espresso.org/quote.php

     Parallel version (MPI), running on    16 processors
     K-points division:     npool     =       4
     R & G space division:  proc/nbgrp/npool/nimage =       4

     Current dimensions of program PWSCF are:
     Max number of different atomic species (ntypx) = 10
     Max number of k-points (npk) =  40000
     Max angular momentum in pseudopotentials (lmaxx) =  3
     Reading input from pw.in
               file Al.pbe-n-kjpaw_psl.0.1.UPF: wavefunction(s)  3S renormalized
               file N.pbe-n-kjpaw_psl.0.1.UPF: wavefunction(s)  2P renormalized

     Subspace diagonalization in iterative solution of the eigenvalue problem:
     a serial algorithm will be used


     Parallelization info
     --------------------
     sticks:   dense  smooth     PW     G-vecs:    dense   smooth      PW
     Min         238     238     70                 9670     9670    1494
     Max         239     239     71                 9679     9679    1495
     Sum         955     955    283                38707    38707    5979



     bravais-lattice index     =            0
     lattice parameter (alat)  =       5.9094  a.u.
     unit-cell volume          =     286.5029 (a.u.)^3
     number of atoms/cell      =            4
     number of atomic types    =            2
     number of electrons       =        16.00
     number of Kohn-Sham states=            8
     kinetic-energy cutoff     =     100.0000  Ry
     charge density cutoff     =     400.0000  Ry
     convergence threshold     =      1.0E-10
     mixing beta               =       0.7000
     number of iterations used =            8  plain     mixing
     Exchange-correlation      =  SLA  PW   PBX  PBC ( 1 4 3 4 0)
     EXX-fraction              =        0.00

     celldm(1)=   5.909433  celldm(2)=   0.000000  celldm(3)=   0.000000
     celldm(4)=   0.000000  celldm(5)=   0.000000  celldm(6)=   0.000000

     crystal axes: (cart. coord. in units of alat)
               a(1) = (   1.000000   0.000000   0.000000 )
               a(2) = (  -0.500000   0.866025   0.000000 )
               a(3) = (   0.000000   0.000000   1.603101 )

     reciprocal axes: (cart. coord. in units 2 pi/alat)
               b(1) = (  1.000000  0.577350  0.000000 )
               b(2) = (  0.000000  1.154701  0.000000 )
               b(3) = (  0.000000  0.000000  0.623791 )


     PseudoPot. # 1 for Al read from file:
     /home/schmerle/soft/share/espresso/pseudo/espresso/Al.pbe-n-kjpaw_psl.0.1.UPF
     MD5 check sum: 023d9faf819c76fc4df1f064efe7b7b2
     Pseudo is Projector augmented-wave + core cor, Zval =  3.0
     Generated using "atomic" code by A. Dal Corso  v.5.0.2 svn rev. 9415
     Shape of augmentation charge: PSQ
     Using radial grid of 1135 points,  4 beta functions with:
                l(1) =   0
                l(2) =   0
                l(3) =   1
                l(4) =   1
     Q(r) pseudized with 0 coefficients


     PseudoPot. # 2 for  N read from file:
     /home/schmerle/soft/share/espresso/pseudo/espresso/N.pbe-n-kjpaw_psl.0.1.UPF
     MD5 check sum: 51b9062c40abfbed4b0465f1412b4c8b
     Pseudo is Projector augmented-wave + core cor, Zval =  5.0
     Generated using "atomic" code by A. Dal Corso  v.5.0.2 svn rev. 9415
     Shape of augmentation charge: PSQ
     Using radial grid of 1085 points,  4 beta functions with:
                l(1) =   0
                l(2) =   0
                l(3) =   1
                l(4) =   1
     Q(r) pseudized with 0 coefficients


     atomic species   valence    mass     pseudopotential
        Al             3.00    26.98154     Al( 1.00)
        N              5.00    14.00674      N( 1.00)

     12 Sym. Ops. (no inversion) found ( 6 have fractional translation)



   Cartesian axes

     site n.     atom                  positions (alat units)
         1           Al  tau(   1) = (  -0.0000000   0.5773503   0.0051635  )
         2           Al  tau(   2) = (   0.5000000   0.2886751   0.8067142  )
         3           N   tau(   3) = (  -0.0000000   0.5773503   0.6168398  )
         4           N   tau(   4) = (   0.5000000   0.2886751   1.4183905  )

     number of k points=    21
                       cart. coord. in units 2pi/alat
        k(    1) = (   0.0000000   0.0000000   0.0000000), wk =   0.0138889
        k(    2) = (   0.0000000   0.0000000   0.1559477), wk =   0.0277778
        k(    3) = (   0.0000000   0.0000000  -0.3118954), wk =   0.0138889
        k(    4) = (   0.0000000   0.1924501   0.0000000), wk =   0.0833333
        k(    5) = (   0.0000000   0.1924501   0.1559477), wk =   0.1666667
        k(    6) = (   0.0000000   0.1924501  -0.3118954), wk =   0.0833333
        k(    7) = (   0.0000000   0.3849002   0.0000000), wk =   0.0833333
        k(    8) = (   0.0000000   0.3849002   0.1559477), wk =   0.1666667
        k(    9) = (   0.0000000   0.3849002  -0.3118954), wk =   0.0833333
        k(   10) = (   0.0000000  -0.5773503   0.0000000), wk =   0.0416667
        k(   11) = (   0.0000000  -0.5773503   0.1559477), wk =   0.0833333
        k(   12) = (   0.0000000  -0.5773503  -0.3118954), wk =   0.0416667
        k(   13) = (   0.1666667   0.2886751   0.0000000), wk =   0.0833333
        k(   14) = (   0.1666667   0.2886751   0.1559477), wk =   0.1666667
        k(   15) = (   0.1666667   0.2886751  -0.3118954), wk =   0.0833333
        k(   16) = (   0.1666667   0.4811252   0.0000000), wk =   0.1666667
        k(   17) = (   0.1666667   0.4811252   0.1559477), wk =   0.3333333
        k(   18) = (   0.1666667   0.4811252  -0.3118954), wk =   0.1666667
        k(   19) = (   0.3333333   0.5773503   0.0000000), wk =   0.0277778
        k(   20) = (   0.3333333   0.5773503   0.1559477), wk =   0.0555556
        k(   21) = (   0.3333333   0.5773503  -0.3118954), wk =   0.0277778

     Dense  grid:    38707 G-vectors     FFT dimensions: (  40,  40,  64)

     Largest allocated arrays     est. size (Mb)     dimensions
        Kohn-Sham Wavefunctions         0.15 Mb     (   1228,    8)
        NL pseudopotentials             0.60 Mb     (   1228,   32)
        Each V/rho on FFT grid          0.39 Mb     (  25600)
        Each G-vector array             0.07 Mb     (   9679)
        G-vector shells                 0.03 Mb     (   4131)
     Largest temporary arrays     est. size (Mb)     dimensions
        Auxiliary wavefunctions         0.60 Mb     (   1228,   32)
        Each subspace H/S matrix        0.02 Mb     (  32,  32)
        Each <psi_i|beta_j> matrix      0.00 Mb     (     32,    8)
        Arrays for rho mixing           3.12 Mb     (  25600,   8)

     Initial potential from superposition of free atoms

     starting charge   15.99540, renormalised to   16.00000
     Starting wfc are   16 randomized atomic wfcs
     Checking if some PAW data can be deallocated...

     total cpu time spent up to now is        7.7 secs

     Self-consistent Calculation

     iteration #  1     ecut=   100.00 Ry     beta=0.70
     Davidson diagonalization with overlap
     ethr =  1.00E-02,  avg # of iterations =  2.0

     total cpu time spent up to now is        8.1 secs

     total energy              =    -135.33735909 Ry
     Harris-Foulkes estimate   =    -136.18805970 Ry
     estimated scf accuracy    <       1.19557133 Ry

     iteration #  2     ecut=   100.00 Ry     beta=0.70
     Davidson diagonalization with overlap
     ethr =  7.47E-03,  avg # of iterations =  3.0

     total cpu time spent up to now is        8.5 secs

     total energy              =    -135.68198834 Ry
     Harris-Foulkes estimate   =    -136.15019542 Ry
     estimated scf accuracy    <       0.95037688 Ry

     iteration #  3     ecut=   100.00 Ry     beta=0.70
     Davidson diagonalization with overlap
     ethr =  5.94E-03,  avg # of iterations =  2.6

     total cpu time spent up to now is        8.9 secs

     total energy              =    -135.83253004 Ry
     Harris-Foulkes estimate   =    -135.83802210 Ry
     estimated scf accuracy    <       0.01067114 Ry

     iteration #  4     ecut=   100.00 Ry     beta=0.70
     Davidson diagonalization with overlap
     ethr =  6.67E-05,  avg # of iterations =  4.0

     total cpu time spent up to now is        9.4 secs

     total energy              =    -135.86150909 Ry
     Harris-Foulkes estimate   =    -135.86755867 Ry
     estimated scf accuracy    <       0.02207048 Ry

     iteration #  5     ecut=   100.00 Ry     beta=0.70
     Davidson diagonalization with overlap
     ethr =  6.67E-05,  avg # of iterations =  1.0

     total cpu time spent up to now is        9.7 secs

     total energy              =    -135.86106888 Ry
     Harris-Foulkes estimate   =    -135.86219822 Ry
     estimated scf accuracy    <       0.00811544 Ry

     iteration #  6     ecut=   100.00 Ry     beta=0.70
     Davidson diagonalization with overlap
     ethr =  5.07E-05,  avg # of iterations =  1.0

     total cpu time spent up to now is       10.0 secs

     total energy              =    -135.85799520 Ry
     Harris-Foulkes estimate   =    -135.86141491 Ry
     estimated scf accuracy    <       0.00572475 Ry

     iteration #  7     ecut=   100.00 Ry     beta=0.70
     Davidson diagonalization with overlap
     ethr =  3.58E-05,  avg # of iterations =  3.0

     total cpu time spent up to now is       10.5 secs

     total energy              =    -135.86107024 Ry
     Harris-Foulkes estimate   =    -135.86200282 Ry
     estimated scf accuracy    <       0.00298214 Ry

     iteration #  8     ecut=   100.00 Ry     beta=0.70
     Davidson diagonalization with overlap
     ethr =  1.86E-05,  avg # of iterations =  1.0

     total cpu time spent up to now is       10.8 secs

     total energy              =    -135.86079628 Ry
     Harris-Foulkes estimate   =    -135.86119821 Ry
     estimated scf accuracy    <       0.00090288 Ry

     iteration #  9     ecut=   100.00 Ry     beta=0.70
     Davidson diagonalization with overlap
     ethr =  5.64E-06,  avg # of iterations =  3.0

     total cpu time spent up to now is       11.2 secs

     total energy              =    -135.86112566 Ry
     Harris-Foulkes estimate   =    -135.86114116 Ry
     estimated scf accuracy    <       0.00003263 Ry

     iteration # 10     ecut=   100.00 Ry     beta=0.70
     Davidson diagonalization with overlap
     ethr =  2.04E-07,  avg # of iterations =  2.2

     total cpu time spent up to now is       11.7 secs

     total energy              =    -135.86113698 Ry
     Harris-Foulkes estimate   =    -135.86113321 Ry
     estimated scf accuracy    <       0.00000025 Ry

     iteration # 11     ecut=   100.00 Ry     beta=0.70
     Davidson diagonalization with overlap
     ethr =  1.56E-09,  avg # of iterations =  4.0

     total cpu time spent up to now is       12.2 secs

     total energy              =    -135.86114427 Ry
     Harris-Foulkes estimate   =    -135.86114081 Ry
     estimated scf accuracy    <       0.00002495 Ry

     iteration # 12     ecut=   100.00 Ry     beta=0.70
     Davidson diagonalization with overlap
     ethr =  1.56E-09,  avg # of iterations =  3.1

     total cpu time spent up to now is       12.7 secs

     total energy              =    -135.86113036 Ry
     Harris-Foulkes estimate   =    -135.86114451 Ry
     estimated scf accuracy    <       0.00003764 Ry

     iteration # 13     ecut=   100.00 Ry     beta=0.70
     Davidson diagonalization with overlap
     ethr =  1.56E-09,  avg # of iterations =  4.0

     total cpu time spent up to now is       13.3 secs

     total energy              =    -135.86113297 Ry
     Harris-Foulkes estimate   =    -135.86113417 Ry
     estimated scf accuracy    <       0.00000261 Ry

     iteration # 14     ecut=   100.00 Ry     beta=0.70
     Davidson diagonalization with overlap
     ethr =  1.56E-09,  avg # of iterations =  3.2

     total cpu time spent up to now is       13.8 secs

     total energy              =    -135.86113339 Ry
     Harris-Foulkes estimate   =    -135.86113340 Ry
     estimated scf accuracy    <       0.00000002 Ry

     iteration # 15     ecut=   100.00 Ry     beta=0.70
     Davidson diagonalization with overlap
     ethr =  1.20E-10,  avg # of iterations =  3.9

     total cpu time spent up to now is       14.3 secs

     total energy              =    -135.86113342 Ry
     Harris-Foulkes estimate   =    -135.86113345 Ry
     estimated scf accuracy    <       0.00000023 Ry

     iteration # 16     ecut=   100.00 Ry     beta=0.70
     Davidson diagonalization with overlap
     ethr =  1.20E-10,  avg # of iterations =  2.0

     total cpu time spent up to now is       14.6 secs

     total energy              =    -135.86113339 Ry
     Harris-Foulkes estimate   =    -135.86113342 Ry
     estimated scf accuracy    <       0.00000014 Ry

     iteration # 17     ecut=   100.00 Ry     beta=0.70
     Davidson diagonalization with overlap
     ethr =  1.20E-10,  avg # of iterations =  3.0

     total cpu time spent up to now is       15.1 secs

     total energy              =    -135.86113338 Ry
     Harris-Foulkes estimate   =    -135.86113339 Ry
     estimated scf accuracy    <       0.00000003 Ry

     iteration # 18     ecut=   100.00 Ry     beta=0.70
     Davidson diagonalization with overlap
     ethr =  1.20E-10,  avg # of iterations =  3.0

     total cpu time spent up to now is       15.5 secs

     total energy              =    -135.86113339 Ry
     Harris-Foulkes estimate   =    -135.86113339 Ry
     estimated scf accuracy    <          1.0E-10 Ry

     iteration # 19     ecut=   100.00 Ry     beta=0.70
     Davidson diagonalization with overlap
     ethr =  6.27E-13,  avg # of iterations =  2.2

     total cpu time spent up to now is       15.9 secs

     End of self-consistent calculation

          k = 0.0000 0.0000 0.0000 (  4855 PWs)   bands (ev):

    -8.1529  -6.0587   1.0134   6.0922   6.0922   6.7375   6.7375   6.9410

          k = 0.0000 0.0000 0.1559 (  4836 PWs)   bands (ev):

    -7.9209  -6.4788   1.7960   5.7362   6.1821   6.1821   6.6383   6.6383

          k = 0.0000 0.0000-0.3119 (  4866 PWs)   bands (ev):

    -7.2844  -7.2844   3.6325   3.6325   6.4055   6.4055   6.4055   6.4055

          k = 0.0000 0.1925 0.0000 (  4862 PWs)   bands (ev):

    -7.8125  -5.8745   1.4248   4.6848   5.4487   5.7055   6.6552   6.7704

          k = 0.0000 0.1925 0.1559 (  4855 PWs)   bands (ev):

    -7.5919  -6.2503   2.0553   4.6928   5.0943   5.8301   6.4036   6.4995

          k = 0.0000 0.1925-0.3119 (  4862 PWs)   bands (ev):

    -6.9923  -6.9923   3.4494   3.4494   5.6326   5.6326   6.1494   6.1494

          k = 0.0000 0.3849 0.0000 (  4830 PWs)   bands (ev):

    -6.9355  -5.5478   2.4726   2.5744   3.6413   5.1217   6.0817   6.3955

          k = 0.0000 0.3849 0.1559 (  4841 PWs)   bands (ev):

    -6.7584  -5.7818   1.9965   2.9221   3.9731   5.2802   6.1546   6.1740

          k = 0.0000 0.3849-0.3119 (  4844 PWs)   bands (ev):

    -6.2983  -6.2983   2.2337   2.2337   5.3954   5.3954   5.6965   5.6965

          k = 0.0000-0.5774 0.0000 (  4826 PWs)   bands (ev):

    -6.2291  -5.5509   1.5477   2.8070   3.6340   4.8780   5.1894   6.2560

          k = 0.0000-0.5774 0.1559 (  4842 PWs)   bands (ev):

    -6.1201  -5.6353   1.3109   2.1372   4.4002   5.0467   5.7538   6.0120

          k = 0.0000-0.5774-0.3119 (  4836 PWs)   bands (ev):

    -5.8658  -5.8658   1.4009   1.4009   5.4931   5.4931   5.5903   5.5903

          k = 0.1667 0.2887 0.0000 (  4847 PWs)   bands (ev):

    -7.1975  -5.6124   2.1999   3.5933   3.5934   5.2542   6.0546   6.3556

          k = 0.1667 0.2887 0.1559 (  4841 PWs)   bands (ev):

    -7.0043  -5.8950   2.2970   3.3772   4.2439   5.0403   5.8190   6.3961

          k = 0.1667 0.2887-0.3119 (  4846 PWs)   bands (ev):

    -6.4925  -6.4925   2.7644   2.7644   5.1353   5.1353   5.7278   5.7278

          k = 0.1667 0.4811 0.0000 (  4818 PWs)   bands (ev):

    -6.3000  -5.4909   2.0377   3.0429   3.4954   4.1793   5.4273   5.5105

          k = 0.1667 0.4811 0.1559 (  4834 PWs)   bands (ev):

    -6.1781  -5.6018   1.8011   2.4283   3.8829   4.7153   5.1276   6.0173

          k = 0.1667 0.4811-0.3119 (  4820 PWs)   bands (ev):

    -5.8850  -5.8850   1.8380   1.8380   4.3502   4.3502   5.9500   5.9500

          k = 0.3333 0.5774 0.0000 (  4812 PWs)   bands (ev):

    -5.7095  -5.7095   2.1954   3.1749   3.1749   4.5199   4.5849   4.5849

          k = 0.3333 0.5774 0.1559 (  4836 PWs)   bands (ev):

    -5.6878  -5.6878   2.4445   2.5371   2.5371   4.0367   5.4724   5.4724

          k = 0.3333 0.5774-0.3119 (  4842 PWs)   bands (ev):

    -5.6658  -5.6658   2.1486   2.1486   3.1370   3.1370   6.1478   6.1478

!    total energy              =    -135.86113339 Ry
     Harris-Foulkes estimate   =    -135.86113339 Ry
     estimated scf accuracy    <          1.6E-11 Ry

     total all-electron energy =     -1190.744299 Ry

     The total energy is the sum of the following terms:

     one-electron contribution =      -1.66343174 Ry
     hartree contribution      =      11.46517885 Ry
     xc contribution           =     -17.36895414 Ry
     ewald contribution        =     -43.26340807 Ry
     one-center paw contrib.   =     -85.03051828 Ry

     convergence has been achieved in  19 iterations

     Forces acting on atoms (Ry/au):

     atom    1 type  1   force =     0.00000000    0.00000000    0.00000124
     atom    2 type  1   force =     0.00000000    0.00000000    0.00000124
     atom    3 type  2   force =     0.00000000    0.00000000   -0.00000124
     atom    4 type  2   force =     0.00000000    0.00000000   -0.00000124

     Total force =     0.000002     Total SCF correction =     0.000000


     entering subroutine stress ...

          total   stress  (Ry/bohr**3)                   (kbar)     P=    0.00
   0.00000001   0.00000000   0.00000000          0.00      0.00      0.00
   0.00000000   0.00000001   0.00000000          0.00      0.00      0.00
   0.00000000   0.00000000  -0.00000002          0.00      0.00     -0.00


     Writing output data file j120vc_relax_ph_run98.save

     init_run     :      0.78s CPU      1.19s WALL (       1 calls)
     electrons    :      4.51s CPU      8.23s WALL (       1 calls)
     forces       :      0.28s CPU      0.30s WALL (       1 calls)
     stress       :      0.53s CPU      0.56s WALL (       1 calls)

     Called by init_run:
     wfcinit      :      0.11s CPU      0.17s WALL (       1 calls)
     potinit      :      0.11s CPU      0.13s WALL (       1 calls)

     Called by electrons:
     c_bands      :      2.56s CPU      5.14s WALL (      19 calls)
     sum_band     :      0.62s CPU      1.17s WALL (      19 calls)
     v_of_rho     :      0.22s CPU      0.36s WALL (      20 calls)
     newd         :      0.25s CPU      0.37s WALL (      20 calls)
     mix_rho      :      0.47s CPU      0.51s WALL (      19 calls)

     Called by c_bands:
     init_us_2    :      0.03s CPU      0.11s WALL (     246 calls)
     cegterg      :      2.46s CPU      4.84s WALL (     114 calls)

     Called by *egterg:
     h_psi        :      2.24s CPU      4.47s WALL (     422 calls)
     s_psi        :      0.01s CPU      0.07s WALL (     422 calls)
     g_psi        :      0.00s CPU      0.03s WALL (     302 calls)
     cdiaghg      :      0.04s CPU      0.08s WALL (     416 calls)

     Called by h_psi:
     add_vuspsi   :      0.01s CPU      0.08s WALL (     422 calls)

     General routines
     calbec       :      0.13s CPU      0.14s WALL (     548 calls)
     fft          :      0.26s CPU      0.69s WALL (     284 calls)
     fftw         :      2.38s CPU      4.72s WALL (    7190 calls)
     davcio       :      0.00s CPU      0.09s WALL (     366 calls)

     Parallel routines
     fft_scatter  :      2.18s CPU      3.93s WALL (    7474 calls)

     PAW routines
     PAW_pot      :      0.23s CPU      0.36s WALL (      20 calls)
     PAW_ddot     :      0.45s CPU      0.44s WALL (     571 calls)
     PAW_symme    :      0.00s CPU      0.01s WALL (      39 calls)

     PWSCF        :     6.94s CPU        19.12s WALL


   This run was terminated on:  11:29:12   1Oct2013

=------------------------------------------------------------------------------=
   JOB DONE.
=------------------------------------------------------------------------------=
